 Gaussian 16, Revision A.03,
 Gaussian 16:  EM64M-G16RevA.03 25-Dec-2016

 ------
 #p pm6
 ------

 ----------------
 Argon Energy PM6
 ----------------
 Symbolic Z-matrix:
 Charge =  0 Multiplicity = 1

                         Standard orientation:
 ---------------------------------------------------------------------
 Center     Atomic      Atomic             Coordinates (Angstroms)
 Number     Number       Type             X           Y           Z
 ---------------------------------------------------------------------
      1         18           0        0.000000    0.000000    0.000000
 ---------------------------------------------------------------------

 SCF Done:  E(RPM6) = -0.177635683940E-14 A.U. after    2 cycles

 The electronic state is 1-A1G.
 Alpha  occ. eigenvalues --   -0.17874  -0.17874  -0.17874
 Alpha virt. eigenvalues --    0.12822

 Mulliken charges:
               1
     1  Ar   0.000000
 Sum of Mulliken charges =   0.00000

 Dipole moment (field-independent basis, Debye):
    X=              0.0000    Y=              0.0000    Z=              0.0000  Tot=              0.0000
 N-N= 9.710118639166D+00 E-N= 0.000000000000D+00  KE=-1.834779528520D+01
 Symmetry AG   KE= 0.000000000000D+00
 Symmetry B1G  KE= 0.000000000000D+00
 Symmetry B2G  KE= 0.000000000000D+00
 Symmetry B3G  KE= 0.000000000000D+00
 Symmetry AU   KE= 0.000000000000D+00
 Symmetry B1U  KE=-6.115931761733D+00
 Symmetry B2U  KE=-6.115931761733D+00
 Symmetry B3U  KE=-6.115931761733D+00
 Leave Link  601 at Fri Sep  6 09:38:26 2024, MaxMem=   104857600 cpu:               0.0 elap:               0.0

 Normal termination of Gaussian 16 at Fri Sep  6 09:38:26 2024.
