 Gaussian 16, Revision A.03,
 Gaussian 16:  EM64M-G16RevA.03 25-Dec-2016

 ----------------------------------------------------------------------
 #p opt=tight freq=raman b3lyp/6-311g(2d,3p) guess=save pop=(hirshfeld,
 full,nbo) geom=connectivity polar
 ----------------------------------------------------------------------

 --------------------------------------------------
 Ethane DFT B3LPY aug-cc-pVTZ Opt Freq - Full - NBO
 --------------------------------------------------
 Symbolic Z-matrix:
 Charge =  0 Multiplicity = 1

 SCF Done:  E(RB3LYP) =  -79.8581285058     A.U. after    8 cycles
 SCF Done:  E(RB3LYP) =  -79.8603278018     A.U. after    8 cycles
 SCF Done:  E(RB3LYP) =  -79.8604579192     A.U. after    6 cycles
 SCF Done:  E(RB3LYP) =  -79.8604663404     A.U. after    6 cycles
 SCF Done:  E(RB3LYP) =  -79.8604664289     A.U. after    4 cycles
 Optimization completed.
    -- Stationary point found.
 Normal termination of Gaussian 16 at Fri Sep  6 16:44:13 2024.

 ----------------------------------------------------------------------
 #P Geom=AllCheck Guess=TCheck SCRF=Check GenChk RB3LYP/6-311G(2d,3p) F
 req
 ----------------------------------------------------------------------

 Structure from the checkpoint file:  "C2H6_DFT_B3LPY_6311pp2d3p_Opt_Freq_Full_NBO_Raman.chk"
 --------------------------------------------------
 Ethane DFT B3LPY aug-cc-pVTZ Opt Freq - Full - NBO
 --------------------------------------------------
 Charge =  0 Multiplicity = 1

                         Standard orientation:
 ---------------------------------------------------------------------
 Center     Atomic      Atomic             Coordinates (Angstroms)
 Number     Number       Type             X           Y           Z
 ---------------------------------------------------------------------
      1          6           0        0.000000    0.000000    0.764324
      2          1           0       -0.000000    1.015849    1.161692
      3          1           0        0.879751   -0.507924    1.161692
      4          1           0       -0.879751   -0.507924    1.161692
      5          6           0       -0.000000   -0.000000   -0.764324
      6          1           0        0.879751    0.507924   -1.161692
      7          1           0       -0.000000   -1.015849   -1.161692
      8          1           0       -0.879751    0.507924   -1.161692
 ---------------------------------------------------------------------

 SCF Done:  E(RB3LYP) =  -79.8604664289     A.U. after    1 cycles

 The electronic state is 1-A1G.
 Alpha  occ. eigenvalues --  -10.15603 -10.15580  -0.75424  -0.61794  -0.43670
 Alpha  occ. eigenvalues --   -0.43670  -0.37075  -0.34577  -0.34577
 Alpha virt. eigenvalues --    0.04095   0.07209   0.08798   0.08798   0.12981
 Alpha virt. eigenvalues --    0.12981   0.21903   0.22381   0.22381   0.22393
 Alpha virt. eigenvalues --    0.22393   0.23668   0.34225   0.34225   0.36737

 Mulliken charges:
               1
     1  C   -0.028892
     2  H    0.009631
     3  H    0.009631
     4  H    0.009631
     5  C   -0.028892
     6  H    0.009631
     7  H    0.009631
     8  H    0.009631
 Sum of Mulliken charges =  -0.00000

 Dipole moment (field-independent basis, Debye):
    X=              0.0000    Y=             -0.0000    Z=              0.0000  Tot=              0.0000
 Quadrupole moment (field-independent basis, Debye-Ang):
   XX=            -14.9972   YY=            -14.9972   ZZ=            -15.6751
   XY=             -0.0000   XZ=              0.0000   YZ=             -0.0000

  Exact polarizability:  26.663  -0.000  26.663  -0.000  -0.000  30.485
 Approx polarizability:  35.810  -0.000  35.810   0.000   0.000  36.391

 Summary of Natural Population Analysis:

                                       Natural Population
                Natural  -----------------------------------------------
    Atom  No    Charge         Core      Valence    Rydberg      Total
 -----------------------------------------------------------------------
      C    1   -0.55996      1.99931     4.55244    0.00821     6.55996
      H    2    0.18665      0.00000     0.80934    0.00401     0.81335
      H    3    0.18665      0.00000     0.80934    0.00401     0.81335
      H    4    0.18665      0.00000     0.80934    0.00401     0.81335
      C    5   -0.55996      1.99931     4.55244    0.00821     6.55996
      H    6    0.18665      0.00000     0.80934    0.00401     0.81335
      H    7    0.18665      0.00000     0.80934    0.00401     0.81335
      H    8    0.18665      0.00000     0.80934    0.00401     0.81335
 =======================================================================
   * Total *    0.00000      3.99863    13.96091    0.04046    18.00000

                      1                      2                      3
                     A1U                    EU                     EU
 Frequencies --    303.9194               827.7971               827.7971
 Red. masses --      1.0078                 1.0583                 1.0583
 Frc consts  --      0.0548                 0.4273                 0.4273
 IR Inten    --      0.0000                 3.7785                 3.7785
 Raman Activ --      0.0000                 0.0000                 0.0000

                      4                      5                      6
                     A1G                    EG                     EG
 Frequencies --    993.8566              1224.4440              1224.4444
 Red. masses --      3.3654                 1.4681                 1.4681
 Frc consts  --      1.9585                 1.2968                 1.2968
 IR Inten    --      0.0000                 0.0000                 0.0000
 Raman Activ --     10.8075                 0.0972                 0.0970

                      7                      8                      9
                     A2U                    A1G                    EG
 Frequencies --   1415.4811              1426.1545              1507.2636
 Red. masses --      1.1983                 1.2419                 1.0179
 Frc consts  --      1.4146                 1.4883                 1.3625
 IR Inten    --      0.8933                 0.0000                 0.0000
 Raman Activ --      0.0000                 0.1714                10.8095

                     10                     11                     12
                     EG                     EU                     EU
 Frequencies --   1507.2637              1510.2728              1510.2733
 Red. masses --      1.0179                 1.0617                 1.0617
 Frc consts  --      1.3625                 1.4268                 1.4268
 IR Inten    --      0.0000                 8.6727                 8.6729
 Raman Activ --     10.8103                 0.0000                 0.0000

                     13                     14                     15
                     A1G                    A2U                    EG
 Frequencies --   3029.9776              3030.9079              3073.0008
 Red. masses --      1.0358                 1.0341                 1.1014
 Frc consts  --      5.6027                 5.5969                 6.1282
 IR Inten    --      0.0000                58.3652                 0.0000
 Raman Activ --    312.0960                 0.0000               122.4257

                     16                     17                     18
                     EG                     EU                     EU
 Frequencies --   3073.0009              3098.0261              3098.0262
 Red. masses --      1.1014                 1.1026                 1.1026
 Frc consts  --      6.1282                 6.2349                 6.2349
 IR Inten    --      0.0000                64.8285                64.8276
 Raman Activ --    122.4343                 0.0000                 0.0000

 - Thermochemistry -
 -------------------
 Temperature   298.150 Kelvin.  Pressure   1.00000 Atm.
 Atom     1 has atomic number  6 and mass  12.00000

 Molecular mass:    30.04695 amu.
 Principal axes and moments of inertia in atomic units:
                           1         2         3
     Eigenvalues --    22.28395  90.35214  90.35214
           X           -0.00000  -0.43421   0.90081
           Y            0.00000   0.90081   0.43421
           Z            1.00000  -0.00000  -0.00000
 This molecule is a prolate symmetric top.
 Rotational symmetry number  6.
 Rotational temperatures (Kelvin)      3.88683     0.95863     0.95863
 Rotational constants (GHZ):          80.98838    19.97453    19.97453
 Zero-point vibrational energy     195481.2 (Joules/Mol)
                                   46.72113 (Kcal/Mol)
 Warning -- explicit consideration of   1 degrees of freedom as
           vibrations may cause significant error
 Vibrational temperatures:    437.27  1191.02  1191.02  1429.94  1761.70
          (Kelvin)           1761.70  2036.56  2051.92  2168.62  2168.62
                             2172.95  2172.95  4359.46  4360.80  4421.36
                             4421.36  4457.37  4457.37

 Zero-point correction=                           0.074455 (Hartree/Particle)
 Thermal correction to Energy=                    0.077945
 Thermal correction to Enthalpy=                  0.078889
 Thermal correction to Gibbs Free Energy=         0.053030
 Sum of electronic and zero-point Energies=            -79.786012
 Sum of electronic and thermal Energies=               -79.782521
 Sum of electronic and thermal Enthalpies=             -79.781577
 Sum of electronic and thermal Free Energies=          -79.807437

                     E (Thermal)             CV                S
                      KCal/Mol        Cal/Mol-Kelvin    Cal/Mol-Kelvin
 Total                   48.911             10.091             54.426
 Electronic               0.000              0.000              0.000
 Translational            0.889              2.981             36.134
 Rotational               0.889              2.981             16.276
 Vibrational             47.134              4.130              2.016
 Vibration     1          0.695              1.666              1.395

 Optimization completed.
    -- Stationary point found.
 Normal termination of Gaussian 16 at Fri Sep  6 16:44:21 2024.
