 Gaussian 16, Revision A.03,
 Gaussian 16:  EM64M-G16RevA.03 25-Dec-2016

 ----------------------------------------------------------------------
 #p opt=tight freq pm6 guess=save pop=(hirshfeld,full) geom=connectivit
 y polar
 ----------------------------------------------------------------------

 --------------------------------------------------
 Ethane DFT B3LPY aug-cc-pVTZ Opt Freq - Full - NBO
 --------------------------------------------------
 Symbolic Z-matrix:
 Charge =  0 Multiplicity = 1

 SCF Done:  E(RPM6) = -0.224191919095E-01 A.U. after    9 cycles
 SCF Done:  E(RPM6) = -0.247375203937E-01 A.U. after    9 cycles
 SCF Done:  E(RPM6) = -0.251547816154E-01 A.U. after    8 cycles
 SCF Done:  E(RPM6) = -0.251787415600E-01 A.U. after    8 cycles
 SCF Done:  E(RPM6) = -0.251802643760E-01 A.U. after    7 cycles
 SCF Done:  E(RPM6) = -0.251802677924E-01 A.U. after    6 cycles
 Optimization completed.
    -- Stationary point found.
 Normal termination of Gaussian 16 at Fri Sep  6 16:45:49 2024.

 -------------------------------------------------------------
 #P Geom=AllCheck Guess=TCheck SCRF=Check GenChk RPM6/ZDO Freq
 -------------------------------------------------------------

 Structure from the checkpoint file:  "C2H6_PM6_Opt_Freq_Full.chk"
 --------------------------------------------------
 Ethane DFT B3LPY aug-cc-pVTZ Opt Freq - Full - NBO
 --------------------------------------------------
 Charge =  0 Multiplicity = 1

                         Standard orientation:
 ---------------------------------------------------------------------
 Center     Atomic      Atomic             Coordinates (Angstroms)
 Number     Number       Type             X           Y           Z
 ---------------------------------------------------------------------
      1          6           0        0.000000   -0.000000    0.760283
      2          1           0        0.000000    1.020437    1.161245
      3          1           0        0.883725   -0.510219    1.161245
      4          1           0       -0.883725   -0.510219    1.161245
      5          6           0       -0.000000    0.000000   -0.760283
      6          1           0        0.883725    0.510219   -1.161245
      7          1           0       -0.000000   -1.020437   -1.161245
      8          1           0       -0.883725    0.510219   -1.161245
 ---------------------------------------------------------------------

 SCF Done:  E(RPM6) = -0.251802677925E-01 A.U. after    2 cycles

 The electronic state is 1-A1G.
 Alpha  occ. eigenvalues --   -0.99402  -0.79741  -0.54988  -0.54988  -0.48066
 Alpha  occ. eigenvalues --   -0.43805  -0.43805
 Alpha virt. eigenvalues --    0.16814   0.21035   0.21035   0.22930   0.22930
 Alpha virt. eigenvalues --    0.25423   0.25464

 Mulliken charges:
               1
     1  C   -0.422902
     2  H    0.140967
     3  H    0.140967
     4  H    0.140967
     5  C   -0.422902
     6  H    0.140967
     7  H    0.140967
     8  H    0.140967
 Sum of Mulliken charges =   0.00000

 Dipole moment (field-independent basis, Debye):
    X=              0.0000    Y=             -0.0000    Z=             -0.0000  Tot=              0.0000
 N-N= 3.474804468697D+01 E-N=-4.211498681489D+01  KE=-1.893558026290D+01
 Symmetry AG   KE=-8.740211045314D+00
 Symmetry BG   KE=-2.140527701845D+00
 Symmetry AU   KE=-2.500174810015D+00
 Symmetry BU   KE=-5.554666705729D+00
 StAtR1:  DoIntr=F IAtCor=3 NETot=      14 Failed=F Sum=  4.00D+00 SumC=  0.00D+00
 There are a total of      180380 grid points.
 ElSum from          density=       21.9778518359
 ElSum from atomic densities=       18.0000000298

  Exact polarizability:  13.122   0.000  13.122  -0.000  -0.000  13.779
 Approx polarizability:   8.586   0.000   8.586  -0.000  -0.000   8.453

                      1                      2                      3
                     A1U                    EU                     EU
 Frequencies --    180.3432               882.9867               882.9867
 Red. masses --      1.0078                 1.0617                 1.0617
 Frc consts  --      0.0193                 0.4877                 0.4877
 IR Inten    --      0.0000                51.2692                51.2692

                      4                      5                      6
                     EG                     EG                     A1G
 Frequencies --   1125.9580              1125.9580              1164.5830
 Red. masses --      1.4605                 1.4605                 3.6814
 Frc consts  --      1.0909                 1.0909                 2.9417
 IR Inten    --      0.0000                 0.0000                 0.0000

                      7                      8                      9
                     EU                     EU                     EG
 Frequencies --   1264.1332              1264.1332              1265.2689
 Red. masses --      1.0670                 1.0670                 1.0436
 Frc consts  --      1.0046                 1.0046                 0.9843
 IR Inten    --     69.0491                69.0491                 0.0000

                     10                     11                     12
                     EG                     A1G                    A2U
 Frequencies --   1265.2689              1328.2641              1345.0387
 Red. masses --      1.0436                 1.2234                 1.1942
 Frc consts  --      0.9843                 1.2717                 1.2729
 IR Inten    --      0.0000                 0.0000               104.4073

                     13                     14                     15
                     EG                     EG                     EU
 Frequencies --   2686.2636              2686.2636              2708.3652
 Red. masses --      1.0803                 1.0803                 1.0932
 Frc consts  --      4.5928                 4.5928                 4.7246
 IR Inten    --      0.0000                 0.0000                89.2674

                     16                     17                     18
                     EU                     A1G                    A2U
 Frequencies --   2708.3652              2783.4239              2793.8692
 Red. masses --      1.0932                 1.0217                 1.0372
 Frc consts  --      4.7246                 4.6637                 4.7700
 IR Inten    --     89.2674                 0.0000                25.0884

 - Thermochemistry -
 -------------------
 Temperature   298.150 Kelvin.  Pressure   1.00000 Atm.
 Atom     1 has atomic number  6 and mass  12.00000

 Molecular mass:    30.04695 amu.
 Principal axes and moments of inertia in atomic units:
                           1         2         3
     Eigenvalues --    22.48572  89.90266  89.90266
           X            0.00000  -0.19002   0.98178
           Y           -0.00000   0.98178   0.19002
           Z            1.00000   0.00000   0.00000
 This molecule is a prolate symmetric top.
 Rotational symmetry number  6.
 Rotational temperatures (Kelvin)      3.85195     0.96342     0.96342
 Rotational constants (GHZ):          80.26164    20.07439    20.07439
 Zero-point vibrational energy     176218.7 (Joules/Mol)
                                   42.11729 (Kcal/Mol)
 Warning -- explicit consideration of   1 degrees of freedom as
           vibrations may cause significant error
 Vibrational temperatures:    259.47  1270.42  1270.42  1620.00  1620.00
          (Kelvin)           1675.58  1818.81  1818.81  1820.44  1820.44
                             1911.08  1935.21  3864.93  3864.93  3896.73
                             3896.73  4004.73  4019.75

 Zero-point correction=                           0.067118 (Hartree/Particle)
 Thermal correction to Energy=                    0.070793
 Thermal correction to Enthalpy=                  0.071738
 Thermal correction to Gibbs Free Energy=         0.045431
 Sum of electronic and zero-point Energies=              0.041938
 Sum of electronic and thermal Energies=                 0.045613
 Sum of electronic and thermal Enthalpies=               0.046557
 Sum of electronic and thermal Free Energies=            0.020251

                     E (Thermal)             CV                S
                      KCal/Mol        Cal/Mol-Kelvin    Cal/Mol-Kelvin
 Total                   44.424             10.553             55.366
 Electronic               0.000              0.000              0.000
 Translational            0.889              2.981             36.134
 Rotational               0.889              2.981             16.275
 Vibrational             42.646              4.591              2.957
 Vibration     1          0.629              1.866              2.325

 Optimization completed.
    -- Stationary point found.
 Normal termination of Gaussian 16 at Fri Sep  6 16:45:50 2024.
