 Gaussian 16, Revision A.03,
 Gaussian 16:  EM64M-G16RevA.03 25-Dec-2016

 ----------------------------------------------------------------------
 #p opt=tight freq=raman hf/6-311++g(2d,3p) guess=save pop=(hirshfeld,f
 ull,nbo) geom=connectivity polar
 ----------------------------------------------------------------------

 --------------------------------------------------
 Ethane DFT B3LPY aug-cc-pVTZ Opt Freq - Full - NBO
 --------------------------------------------------
 Symbolic Z-matrix:
 Charge =  0 Multiplicity = 1

 SCF Done:  E(RHF) =  -79.2552110256     A.U. after    9 cycles
 SCF Done:  E(RHF) =  -79.2566257368     A.U. after    8 cycles
 SCF Done:  E(RHF) =  -79.2567038277     A.U. after    7 cycles
 SCF Done:  E(RHF) =  -79.2567053951     A.U. after    6 cycles
 SCF Done:  E(RHF) =  -79.2567054093     A.U. after    4 cycles
 Optimization completed.
    -- Stationary point found.
 Normal termination of Gaussian 16 at Fri Sep  6 16:45:01 2024.

 ----------------------------------------------------------------------
 #P Geom=AllCheck Guess=TCheck SCRF=Check GenChk RHF/6-311++G(2d,3p) Fr
 eq
 ----------------------------------------------------------------------

 Structure from the checkpoint file:  "C2H6_HF_6311pp2d3p_Opt_Freq_Full_NBO_Raman.chk"
 --------------------------------------------------
 Ethane DFT B3LPY aug-cc-pVTZ Opt Freq - Full - NBO
 --------------------------------------------------
 Charge =  0 Multiplicity = 1

                         Standard orientation:
 ---------------------------------------------------------------------
 Center     Atomic      Atomic             Coordinates (Angstroms)
 Number     Number       Type             X           Y           Z
 ---------------------------------------------------------------------
      1          6           0        0.000000   -0.000000    0.762501
      2          1           0       -0.000000    1.010311    1.154202
      3          1           0        0.874955   -0.505156    1.154202
      4          1           0       -0.874955   -0.505156    1.154202
      5          6           0       -0.000000    0.000000   -0.762501
      6          1           0        0.874955    0.505156   -1.154202
      7          1           0       -0.000000   -1.010311   -1.154202
      8          1           0       -0.874955    0.505156   -1.154202
 ---------------------------------------------------------------------

 SCF Done:  E(RHF) =  -79.2567054093     A.U. after    1 cycles

 The electronic state is 1-A1G.
 Alpha  occ. eigenvalues --  -11.20715 -11.20654  -1.01979  -0.84422  -0.59870
 Alpha  occ. eigenvalues --   -0.59870  -0.50998  -0.48841  -0.48841
 Alpha virt. eigenvalues --    0.04259   0.05903   0.06608   0.06608   0.09685
 Alpha virt. eigenvalues --    0.09685   0.13946   0.14450   0.14450   0.17249
 Alpha virt. eigenvalues --    0.18151   0.19503   0.19503   0.19610   0.28133

 Mulliken charges:
               1
     1  C    0.033435
     2  H   -0.011145
     3  H   -0.011145
     4  H   -0.011145
     5  C    0.033435
     6  H   -0.011145
     7  H   -0.011145
     8  H   -0.011145
 Sum of Mulliken charges =  -0.00000

 Dipole moment (field-independent basis, Debye):
    X=              0.0000    Y=              0.0000    Z=              0.0000  Tot=              0.0000
 Quadrupole moment (field-independent basis, Debye-Ang):
   XX=            -14.8942   YY=            -14.8942   ZZ=            -15.6536
   XY=             -0.0000   XZ=              0.0000   YZ=              0.0000

  Exact polarizability:  25.676  -0.000  25.676   0.000  -0.000  28.991
 Approx polarizability:  22.752   0.000  22.752   0.000  -0.000  22.893

 Summary of Natural Population Analysis:

                                       Natural Population
                Natural  -----------------------------------------------
    Atom  No    Charge         Core      Valence    Rydberg      Total
 -----------------------------------------------------------------------
      C    1   -0.49272      1.99948     4.47727    0.01597     6.49272
      H    2    0.16424      0.00000     0.83286    0.00290     0.83576
      H    3    0.16424      0.00000     0.83286    0.00290     0.83576
      H    4    0.16424      0.00000     0.83286    0.00290     0.83576
      C    5   -0.49272      1.99948     4.47727    0.01597     6.49272
      H    6    0.16424      0.00000     0.83286    0.00290     0.83576
      H    7    0.16424      0.00000     0.83286    0.00290     0.83576
      H    8    0.16424      0.00000     0.83286    0.00290     0.83576
 =======================================================================
   * Total *    0.00000      3.99896    13.95172    0.04932    18.00000

                      1                      2                      3
                     A1U                    EU                     EU
 Frequencies --    330.5233               883.4208               883.4208
 Red. masses --      1.0078                 1.0566                 1.0566
 Frc consts  --      0.0649                 0.4858                 0.4858
 IR Inten    --      0.0000                 2.4262                 2.4262
 Raman Activ --      0.0000                 0.0000                 0.0000

                      4                      5                      6
                     A1G                    EG                     EG
 Frequencies --   1048.6047              1325.0008              1325.0008
 Red. masses --      3.1801                 1.4578                 1.4578
 Frc consts  --      2.0602                 1.5079                 1.5079
 IR Inten    --      0.0000                 0.0000                 0.0000
 Raman Activ --     16.0260                 0.1556                 0.1556

                      7                      8                      9
                     A2U                    A1G                    EG
 Frequencies --   1523.6653              1551.4728              1618.5910
 Red. masses --      1.1987                 1.2669                 1.0204
 Frc consts  --      1.6396                 1.7968                 1.5750
 IR Inten    --      0.4173                 0.0000                 0.0000
 Raman Activ --      0.0000                 0.3682                 9.5997

                     10                     11                     12
                     EG                     EU                     EU
 Frequencies --   1618.5910              1622.1718              1622.1718
 Red. masses --      1.0204                 1.0629                 1.0629
 Frc consts  --      1.5750                 1.6479                 1.6479
 IR Inten    --      0.0000                 8.1740                 8.1740
 Raman Activ --      9.5997                 0.0000                 0.0000

                     13                     14                     15
                     A2U                    A1G                    EG
 Frequencies --   3158.1171              3164.6290              3200.0577
 Red. masses --      1.0338                 1.0373                 1.1023
 Frc consts  --      6.0748                 6.1207                 6.6508
 IR Inten    --     73.0298                 0.0000                 0.0000
 Raman Activ --      0.0000               331.9087               127.1926

                     16                     17                     18
                     EG                     EU                     EU
 Frequencies --   3200.0577              3227.2895              3227.2895
 Red. masses --      1.1023                 1.1032                 1.1032
 Frc consts  --      6.6508                 6.7697                 6.7697
 IR Inten    --      0.0000                96.7655                96.7655
 Raman Activ --    127.1926                 0.0000                 0.0000

 - Thermochemistry -
 -------------------
 Temperature   298.150 Kelvin.  Pressure   1.00000 Atm.
 Atom     1 has atomic number  6 and mass  12.00000

 Molecular mass:    30.04695 amu.
 Principal axes and moments of inertia in atomic units:
                           1         2         3
     Eigenvalues --    22.04168  89.61789  89.61789
           X            0.00000  -0.54390   0.83915
           Y           -0.00000   0.83915   0.54390
           Z            1.00000   0.00000   0.00000
 This molecule is a prolate symmetric top.
 Rotational symmetry number  6.
 Rotational temperatures (Kelvin)      3.92955     0.96648     0.96648
 Rotational constants (GHZ):          81.87858    20.13818    20.13818
 Zero-point vibrational energy     206535.7 (Joules/Mol)
                                   49.36322 (Kcal/Mol)
 Warning -- explicit consideration of   1 degrees of freedom as
           vibrations may cause significant error
 Vibrational temperatures:    475.55  1271.05  1271.05  1508.71  1906.38
          (Kelvin)           1906.38  2192.21  2232.22  2328.79  2328.79
                             2333.94  2333.94  4543.83  4553.20  4604.17
                             4604.17  4643.35  4643.35

 Zero-point correction=                           0.078665 (Hartree/Particle)
 Thermal correction to Energy=                    0.082067
 Thermal correction to Enthalpy=                  0.083011
 Thermal correction to Gibbs Free Energy=         0.057301
 Sum of electronic and zero-point Energies=            -79.178040
 Sum of electronic and thermal Energies=               -79.174638
 Sum of electronic and thermal Enthalpies=             -79.173694
 Sum of electronic and thermal Free Energies=          -79.199405

                     E (Thermal)             CV                S
                      KCal/Mol        Cal/Mol-Kelvin    Cal/Mol-Kelvin
 Total                   51.498              9.549             54.113
 Electronic               0.000              0.000              0.000
 Translational            0.889              2.981             36.134
 Rotational               0.889              2.981             16.249
 Vibrational             49.720              3.588              1.730
 Vibration     1          0.713              1.615              1.258

 Optimization completed.
    -- Stationary point found.
 Normal termination of Gaussian 16 at Fri Sep  6 16:45:06 2024.
