 Gaussian 16, Revision A.03,
 Gaussian 16:  EM64M-G16RevA.03 25-Dec-2016

 ----------------------------------------------------------------------
 #p opt=tight freq=raman b3lyp/aug-cc-pvtz guess=save pop=(hirshfeld,fu
 ll,nbo) geom=connectivity polar
 ----------------------------------------------------------------------

 -----------------------------------------------
 CH4 DFT B3LPY aug-cc-pVTZ Opt Freq - Full - NBO
 -----------------------------------------------
 Symbolic Z-matrix:
 Charge =  0 Multiplicity = 1

 SCF Done:  E(RB3LYP) =  -40.5375616294     A.U. after    7 cycles
 SCF Done:  E(RB3LYP) =  -40.5384248158     A.U. after    6 cycles
 SCF Done:  E(RB3LYP) =  -40.5384250389     A.U. after    5 cycles
 Optimization completed.
    -- Stationary point found.
 Normal termination of Gaussian 16 at Fri Sep  6 16:35:20 2024.

 ----------------------------------------------------------------------
 #P Geom=AllCheck Guess=TCheck SCRF=Check GenChk RB3LYP/Aug-CC-pVTZ Fre
 q
 ----------------------------------------------------------------------

 Structure from the checkpoint file:  "CH4_DFT_B3LPY_apVTZ_Opt_Freq_Full_NBO_Raman.chk"
 -----------------------------------------------
 CH4 DFT B3LPY aug-cc-pVTZ Opt Freq - Full - NBO
 -----------------------------------------------
 Charge =  0 Multiplicity = 1

                         Standard orientation:
 ---------------------------------------------------------------------
 Center     Atomic      Atomic             Coordinates (Angstroms)
 Number     Number       Type             X           Y           Z
 ---------------------------------------------------------------------
      1          6           0        0.000000    0.000000    0.000000
      2          1           0        0.628319    0.628319    0.628319
      3          1           0       -0.628319   -0.628319    0.628319
      4          1           0       -0.628319    0.628319   -0.628319
      5          1           0        0.628319   -0.628319   -0.628319
 ---------------------------------------------------------------------

 SCF Done:  E(RB3LYP) =  -40.5384250389     A.U. after    1 cycles

 The electronic state is 1-A1.
 Alpha  occ. eigenvalues --  -10.15517  -0.69713  -0.39560  -0.39560  -0.39560
 Alpha virt. eigenvalues --   -0.00814   0.02587   0.02587   0.02587   0.08357
 Alpha virt. eigenvalues --    0.08357   0.08357   0.08635   0.13513   0.13513
 Alpha virt. eigenvalues --    0.13513   0.14814   0.14814   0.25482   0.25482

 Mulliken charges:
               1
     1  C   -0.931521
     2  H    0.232880
     3  H    0.232880
     4  H    0.232880
     5  H    0.232880
 Sum of Mulliken charges =  -0.00000

 Dipole moment (field-independent basis, Debye):
    X=              0.0000    Y=             -0.0000    Z=             -0.0000  Tot=              0.0000
 Quadrupole moment (field-independent basis, Debye-Ang):
   XX=             -8.4920   YY=             -8.4920   ZZ=             -8.4920
   XY=              0.0000   XZ=              0.0000   YZ=             -0.0000

  Exact polarizability:  17.022   0.000  17.022  -0.000  -0.000  17.022
 Approx polarizability:  21.099  -0.000  21.099   0.000  -0.000  21.099

 Summary of Natural Population Analysis:

                                       Natural Population
                Natural  -----------------------------------------------
    Atom  No    Charge         Core      Valence    Rydberg      Total
 -----------------------------------------------------------------------
      C    1   -0.81768      1.99960     4.81459    0.00350     6.81768
      H    2    0.20442      0.00000     0.79373    0.00185     0.79558
      H    3    0.20442      0.00000     0.79373    0.00185     0.79558
      H    4    0.20442      0.00000     0.79373    0.00185     0.79558
      H    5    0.20442      0.00000     0.79373    0.00185     0.79558
 =======================================================================
   * Total *   -0.00000      1.99960     7.98951    0.01089    10.00000

                      1                      2                      3
                     T2                     T2                     T2
 Frequencies --   1339.3297              1339.3297              1339.3297
 Red. masses --      1.1799                 1.1799                 1.1799
 Frc consts  --      1.2470                 1.2470                 1.2470
 IR Inten    --     11.6105                11.6105                11.6105
 Raman Activ --      0.0567                 0.0567                 0.0567

                      4                      5                      6
                      E                      E                     A1
 Frequencies --   1557.6138              1557.6138              3028.2194
 Red. masses --      1.0078                 1.0078                 1.0078
 Frc consts  --      1.4406                 1.4406                 5.4452
 IR Inten    --      0.0000                 0.0000                 0.0000
 Raman Activ --      2.7280                 2.7280               227.3063

                      7                      8                      9
                     T2                     T2                     T2
 Frequencies --   3129.3217              3129.3217              3129.3217
 Red. masses --      1.1008                 1.1008                 1.1008
 Frc consts  --      6.3514                 6.3514                 6.3514
 IR Inten    --     22.2960                22.2960                22.2960
 Raman Activ --     48.0596                48.0596                48.0596

 - Thermochemistry -
 -------------------
 Temperature   298.150 Kelvin.  Pressure   1.00000 Atm.
 Atom     1 has atomic number  6 and mass  12.00000

 Molecular mass:    16.03130 amu.
 Principal axes and moments of inertia in atomic units:
                           1         2         3
     Eigenvalues --    11.36667  11.36667  11.36667
           X            0.28735   0.27304   0.91808
           Y            0.95783  -0.08191  -0.27543
           Z            0.00000   0.95851  -0.28506
 This molecule is a spherical top.
 Rotational symmetry number 12.
 Rotational temperatures (Kelvin)      7.61999     7.61999     7.61999
 Rotational constants (GHZ):         158.77488   158.77488   158.77488
 Zero-point vibrational energy     116931.4 (Joules/Mol)
                                   27.94727 (Kcal/Mol)
 Vibrational temperatures:   1927.00  1927.00  1927.00  2241.06  2241.06
          (Kelvin)           4356.93  4502.40  4502.40  4502.40

 Zero-point correction=                           0.044537 (Hartree/Particle)
 Thermal correction to Energy=                    0.047406
 Thermal correction to Enthalpy=                  0.048350
 Thermal correction to Gibbs Free Energy=         0.027226
 Sum of electronic and zero-point Energies=            -40.493888
 Sum of electronic and thermal Energies=               -40.491019
 Sum of electronic and thermal Enthalpies=             -40.490075
 Sum of electronic and thermal Free Energies=          -40.511199

                     E (Thermal)             CV                S
                      KCal/Mol        Cal/Mol-Kelvin    Cal/Mol-Kelvin
 Total                   29.748              6.474             44.460
 Electronic               0.000              0.000              0.000
 Translational            0.889              2.981             34.261
 Rotational               0.889              2.981             10.110
 Vibrational             27.970              0.513              0.088

 Optimization completed.
    -- Stationary point found.
 Normal termination of Gaussian 16 at Fri Sep  6 16:35:35 2024.
