 Gaussian 16, Revision A.03,
 Gaussian 16:  EM64M-G16RevA.03 25-Dec-2016

 ----------------------------------------------------------------------
 #p opt=tight freq=raman wb97xd/aug-cc-pvtz guess=save pop=(hirshfeld,f
 ull,nbo) geom=connectivity polar
 ----------------------------------------------------------------------

 -----------------------------------------------
 CH4 DFT B3LPY aug-cc-pVTZ Opt Freq - Full - NBO
 -----------------------------------------------
 Symbolic Z-matrix:
 Charge =  0 Multiplicity = 1

 SCF Done:  E(RwB97XD) =  -40.5192467001     A.U. after    9 cycles
 SCF Done:  E(RwB97XD) =  -40.5200735804     A.U. after    7 cycles
 SCF Done:  E(RwB97XD) =  -40.5200736364     A.U. after    5 cycles
 Optimization completed.
    -- Stationary point found.
 Normal termination of Gaussian 16 at Fri Sep  6 16:36:20 2024.

 ----------------------------------------------------------------------
 #P Geom=AllCheck Guess=TCheck SCRF=Check GenChk RwB97XD/Aug-CC-pVTZ Fr
 eq
 ----------------------------------------------------------------------

 Structure from the checkpoint file:  "CH4_DFT_WB97XD_apVTZ_Opt_Freq_Full_NBO_Raman.chk"
 -----------------------------------------------
 CH4 DFT B3LPY aug-cc-pVTZ Opt Freq - Full - NBO
 -----------------------------------------------
 Charge =  0 Multiplicity = 1

                         Standard orientation:
 ---------------------------------------------------------------------
 Center     Atomic      Atomic             Coordinates (Angstroms)
 Number     Number       Type             X           Y           Z
 ---------------------------------------------------------------------
      1          6           0        0.000000    0.000000    0.000000
      2          1           0        0.628049    0.628049    0.628049
      3          1           0       -0.628049   -0.628049    0.628049
      4          1           0       -0.628049    0.628049   -0.628049
      5          1           0        0.628049   -0.628049   -0.628049
 ---------------------------------------------------------------------

 SCF Done:  E(RwB97XD) =  -40.5200736364     A.U. after    1 cycles

 The electronic state is 1-A1.
 Alpha  occ. eigenvalues --  -10.26361  -0.79188  -0.47661  -0.47661  -0.47661
 Alpha virt. eigenvalues --    0.03298   0.05354   0.05354   0.05354   0.12621
 Alpha virt. eigenvalues --    0.12621   0.12621   0.13280   0.20529   0.20529
 Alpha virt. eigenvalues --    0.20529   0.21704   0.21704   0.31569   0.31569

 Mulliken charges:
               1
     1  C   -1.074448
     2  H    0.268612
     3  H    0.268612
     4  H    0.268612
     5  H    0.268612
 Sum of Mulliken charges =   0.00000

 Dipole moment (field-independent basis, Debye):
    X=             -0.0000    Y=              0.0000    Z=             -0.0000  Tot=              0.0000
 Quadrupole moment (field-independent basis, Debye-Ang):
   XX=             -8.3616   YY=             -8.3616   ZZ=             -8.3616
   XY=              0.0000   XZ=             -0.0000   YZ=             -0.0000

  Exact polarizability:  16.811   0.000  16.811   0.000   0.000  16.811
 Approx polarizability:  16.012  -0.000  16.012  -0.000   0.000  16.012

 Summary of Natural Population Analysis:

                                       Natural Population
                Natural  -----------------------------------------------
    Atom  No    Charge         Core      Valence    Rydberg      Total
 -----------------------------------------------------------------------
      C    1   -0.82303      1.99961     4.82009    0.00333     6.82303
      H    2    0.20576      0.00000     0.79244    0.00180     0.79424
      H    3    0.20576      0.00000     0.79244    0.00180     0.79424
      H    4    0.20576      0.00000     0.79244    0.00180     0.79424
      H    5    0.20576      0.00000     0.79244    0.00180     0.79424
 =======================================================================
   * Total *   -0.00000      1.99961     7.98985    0.01055    10.00000

                      1                      2                      3
                     T2                     T2                     T2
 Frequencies --   1342.9294              1342.9294              1342.9294
 Red. masses --      1.1792                 1.1792                 1.1792
 Frc consts  --      1.2530                 1.2530                 1.2530
 IR Inten    --     13.3604                13.3604                13.3604
 Raman Activ --      0.0362                 0.0362                 0.0362

                      4                      5                      6
                      E                      E                     A1
 Frequencies --   1564.0078              1564.0078              3042.6832
 Red. masses --      1.0078                 1.0078                 1.0078
 Frc consts  --      1.4525                 1.4525                 5.4973
 IR Inten    --      0.0000                 0.0000                 0.0000
 Raman Activ --      2.6694                 2.6694               224.7545

                      7                      8                      9
                     T2                     T2                     T2
 Frequencies --   3161.0607              3161.0607              3161.0607
 Red. masses --      1.1015                 1.1015                 1.1015
 Frc consts  --      6.4847                 6.4847                 6.4847
 IR Inten    --     21.5473                21.5473                21.5473
 Raman Activ --     45.3402                45.3402                45.3402

 - Thermochemistry -
 -------------------
 Temperature   298.150 Kelvin.  Pressure   1.00000 Atm.
 Atom     1 has atomic number  6 and mass  12.00000

 Molecular mass:    16.03130 amu.
 Principal axes and moments of inertia in atomic units:
                           1         2         3
     Eigenvalues --    11.35692  11.35692  11.35692
           X            0.99355   0.09872  -0.05585
           Y           -0.08707   0.97939   0.18225
           Z            0.07269  -0.17621   0.98167
 This molecule is a spherical top.
 Rotational symmetry number 12.
 Rotational temperatures (Kelvin)      7.62653     7.62653     7.62653
 Rotational constants (GHZ):         158.91113   158.91113   158.91113
 Zero-point vibrational energy     117728.5 (Joules/Mol)
                                   28.13779 (Kcal/Mol)
 Vibrational temperatures:   1932.18  1932.18  1932.18  2250.26  2250.26
          (Kelvin)           4377.74  4548.06  4548.06  4548.06

 Zero-point correction=                           0.044840 (Hartree/Particle)
 Thermal correction to Energy=                    0.047709
 Thermal correction to Enthalpy=                  0.048653
 Thermal correction to Gibbs Free Energy=         0.027531
 Sum of electronic and zero-point Energies=            -40.475233
 Sum of electronic and thermal Energies=               -40.472365
 Sum of electronic and thermal Enthalpies=             -40.471421
 Sum of electronic and thermal Free Energies=          -40.492543

                     E (Thermal)             CV                S
                      KCal/Mol        Cal/Mol-Kelvin    Cal/Mol-Kelvin
 Total                   29.938              6.467             44.455
 Electronic               0.000              0.000              0.000
 Translational            0.889              2.981             34.261
 Rotational               0.889              2.981             10.108
 Vibrational             28.160              0.505              0.086

 Optimization completed.
    -- Stationary point found.
 Normal termination of Gaussian 16 at Fri Sep  6 16:36:38 2024.
