 Gaussian 16, Revision A.03,
 Gaussian 16:  EM64M-G16RevA.03 25-Dec-2016

 ----------------------------------------------------------------------
 #p opt=tight freq=raman b3lyp/6-311++g(2d,3p) guess=save pop=(hirshfel
 d,full,nbo) geom=connectivity polar
 ----------------------------------------------------------------------

 ---------------------------------------------------
 CH4 DFT B3LPY 6-311++g(2d,3p) Opt Freq - Full - NBO
 ---------------------------------------------------
 Symbolic Z-matrix:
 Charge =  0 Multiplicity = 1

 SCF Done:  E(RB3LYP) =  -40.5355355070     A.U. after    7 cycles
 SCF Done:  E(RB3LYP) =  -40.5363904485     A.U. after    6 cycles
 SCF Done:  E(RB3LYP) =  -40.5363906382     A.U. after    4 cycles
 Optimization completed.
    -- Stationary point found.
 Normal termination of Gaussian 16 at Fri Sep  6 16:34:08 2024.

 ----------------------------------------------------------------------
 #P Geom=AllCheck Guess=TCheck SCRF=Check GenChk RB3LYP/6-311++G(2d,3p)
  Freq
 ----------------------------------------------------------------------

 Structure from the checkpoint file:  "CH4_DFT_B3LPY_6311pp2d3p_Opt_Freq_Full_NBO_Raman.chk"
 ---------------------------------------------------
 CH4 DFT B3LPY 6-311++g(2d,3p) Opt Freq - Full - NBO
 ---------------------------------------------------
 Charge =  0 Multiplicity = 1

                         Standard orientation:
 ---------------------------------------------------------------------
 Center     Atomic      Atomic             Coordinates (Angstroms)
 Number     Number       Type             X           Y           Z
 ---------------------------------------------------------------------
      1          6           0        0.000000    0.000000    0.000000
      2          1           0        0.628262    0.628262    0.628262
      3          1           0       -0.628262   -0.628262    0.628262
      4          1           0       -0.628262    0.628262   -0.628262
      5          1           0        0.628262   -0.628262   -0.628262
 ---------------------------------------------------------------------

 SCF Done:  E(RB3LYP) =  -40.5363906382     A.U. after    1 cycles

 The electronic state is 1-A1.
 Alpha  occ. eigenvalues --  -10.15053  -0.69715  -0.39583  -0.39583  -0.39583
 Alpha virt. eigenvalues --   -0.00546   0.03845   0.03845   0.03845   0.08906
 Alpha virt. eigenvalues --    0.08906   0.08906   0.11685   0.18559   0.18559
 Alpha virt. eigenvalues --    0.18559   0.26957   0.27243   0.27243   0.34416

 Mulliken charges:
               1
     1  C   -0.099972
     2  H    0.024993
     3  H    0.024993
     4  H    0.024993
     5  H    0.024993
 Sum of Mulliken charges =  -0.00000

 Dipole moment (field-independent basis, Debye):
    X=              0.0000    Y=             -0.0000    Z=             -0.0000  Tot=              0.0000
 Quadrupole moment (field-independent basis, Debye-Ang):
   XX=             -8.4912   YY=             -8.4912   ZZ=             -8.4912
   XY=              0.0000   XZ=             -0.0000   YZ=             -0.0000

  Exact polarizability:  16.647  -0.000  16.647  -0.000   0.000  16.647
 Approx polarizability:  20.700  -0.000  20.700   0.000   0.000  20.700

 Summary of Natural Population Analysis:

                                       Natural Population
                Natural  -----------------------------------------------
    Atom  No    Charge         Core      Valence    Rydberg      Total
 -----------------------------------------------------------------------
      C    1   -0.80393      1.99942     4.80215    0.00236     6.80393
      H    2    0.20098      0.00000     0.79770    0.00131     0.79902
      H    3    0.20098      0.00000     0.79770    0.00131     0.79902
      H    4    0.20098      0.00000     0.79770    0.00131     0.79902
      H    5    0.20098      0.00000     0.79770    0.00131     0.79902
 =======================================================================
   * Total *    0.00000      1.99942     7.99296    0.00762    10.00000

                      1                      2                      3
                     T2                     T2                     T2
 Frequencies --   1341.6867              1341.6867              1341.6867
 Red. masses --      1.1798                 1.1798                 1.1798
 Frc consts  --      1.2513                 1.2513                 1.2513
 IR Inten    --     12.2030                12.2030                12.2030
 Raman Activ --      0.0064                 0.0064                 0.0064

                      4                      5                      6
                      E                      E                     A1
 Frequencies --   1560.5877              1560.5877              3030.2225
 Red. masses --      1.0078                 1.0078                 1.0078
 Frc consts  --      1.4461                 1.4461                 5.4524
 IR Inten    --      0.0000                 0.0000                 0.0000
 Raman Activ --      4.3398                 4.3398               213.7502

                      7                      8                      9
                     T2                     T2                     T2
 Frequencies --   3131.1574              3131.1574              3131.1574
 Red. masses --      1.1010                 1.1010                 1.1010
 Frc consts  --      6.3597                 6.3597                 6.3597
 IR Inten    --     22.2094                22.2094                22.2094
 Raman Activ --     49.6790                49.6790                49.6790

 - Thermochemistry -
 -------------------
 Temperature   298.150 Kelvin.  Pressure   1.00000 Atm.
 Atom     1 has atomic number  6 and mass  12.00000

 Molecular mass:    16.03130 amu.
 Principal axes and moments of inertia in atomic units:
                           1         2         3
     Eigenvalues --    11.36460  11.36460  11.36460
           X            0.00000  -0.66031   0.75100
           Y            0.00000   0.75100   0.66031
           Z            1.00000   0.00000  -0.00000
 This molecule is a spherical top.
 Rotational symmetry number 12.
 Rotational temperatures (Kelvin)      7.62138     7.62138     7.62138
 Rotational constants (GHZ):         158.80378   158.80378   158.80378
 Zero-point vibrational energy     117054.2 (Joules/Mol)
                                   27.97662 (Kcal/Mol)
 Vibrational temperatures:   1930.39  1930.39  1930.39  2245.34  2245.34
          (Kelvin)           4359.81  4505.04  4505.04  4505.04

 Zero-point correction=                           0.044584 (Hartree/Particle)
 Thermal correction to Energy=                    0.047452
 Thermal correction to Enthalpy=                  0.048396
 Thermal correction to Gibbs Free Energy=         0.027273
 Sum of electronic and zero-point Energies=            -40.491807
 Sum of electronic and thermal Energies=               -40.488939
 Sum of electronic and thermal Enthalpies=             -40.487994
 Sum of electronic and thermal Free Energies=          -40.509118

                     E (Thermal)             CV                S
                      KCal/Mol        Cal/Mol-Kelvin    Cal/Mol-Kelvin
 Total                   29.777              6.470             44.458
 Electronic               0.000              0.000              0.000
 Translational            0.889              2.981             34.261
 Rotational               0.889              2.981             10.110
 Vibrational             27.999              0.508              0.087

 Optimization completed.
    -- Stationary point found.
 Normal termination of Gaussian 16 at Fri Sep  6 16:34:14 2024.
