 Gaussian 16, Revision A.03,
 Gaussian 16:  EM64M-G16RevA.03 25-Dec-2016

 ----------------------------------------------------------------------
 #p opt=tight freq pm6 guess=save pop=(hirshfeld,full) geom=connectivit
 y polar
 ----------------------------------------------------------------------

 -----------------------------
 CH4 PM6 Opt Freq - Full - NBO
 -----------------------------
 Symbolic Z-matrix:
 Charge =  0 Multiplicity = 1

 SCF Done:  E(RPM6) = -0.191219537137E-01 A.U. after    8 cycles
 SCF Done:  E(RPM6) = -0.195727106299E-01 A.U. after    6 cycles
 SCF Done:  E(RPM6) = -0.195852394352E-01 A.U. after    6 cycles
 Optimization completed.
    -- Stationary point found.
 Normal termination of Gaussian 16 at Fri Sep  6 16:31:02 2024.

 -------------------------------------------------------------
 #P Geom=AllCheck Guess=TCheck SCRF=Check GenChk RPM6/ZDO Freq
 -------------------------------------------------------------

 Structure from the checkpoint file:  "CH4_PM6_Opt_Freq_Full.chk"
 -----------------------------
 CH4 PM6 Opt Freq - Full - NBO
 -----------------------------
 Charge =  0 Multiplicity = 1

                         Standard orientation:
 ---------------------------------------------------------------------
 Center     Atomic      Atomic             Coordinates (Angstroms)
 Number     Number       Type             X           Y           Z
 ---------------------------------------------------------------------
      1          6           0        0.000000    0.000000    0.000000
      2          1           0        0.626127    0.626127    0.626127
      3          1           0       -0.626127   -0.626127    0.626127
      4          1           0       -0.626127    0.626127   -0.626127
      5          1           0        0.626127   -0.626127   -0.626127
 ---------------------------------------------------------------------

 SCF Done:  E(RPM6) = -0.195852394352E-01 A.U. after    2 cycles

 The electronic state is 1-A1.
 Alpha  occ. eigenvalues --   -0.92646  -0.50259  -0.50259  -0.50259
 Alpha virt. eigenvalues --    0.22111   0.22111   0.22111   0.26662

 Mulliken charges:
               1
     1  C   -0.655114
     2  H    0.163779
     3  H    0.163779
     4  H    0.163779
     5  H    0.163779
 Sum of Mulliken charges =   0.00000

 Dipole moment (field-independent basis, Debye):
    X=             -0.0000    Y=              0.0000    Z=              0.0000  Tot=              0.0000
 N-N= 1.446632776411D+01 E-N=-1.374860373476D+01  KE=-1.035476153664D+01
 Symmetry A    KE=-3.284382258912D+00
 Symmetry B1   KE=-2.356793091854D+00
 Symmetry B2   KE=-2.356793093976D+00
 Symmetry B3   KE=-2.356793091897D+00
 StAtR1:  DoIntr=F IAtCor=3 NETot=       8 Failed=F Sum=  2.00D+00 SumC=  0.00D+00
 There are a total of      110938 grid points.
 ElSum from          density=       12.3495711341
 ElSum from atomic densities=       10.0000021909

  Exact polarizability:   6.519  -0.000   6.519  -0.000   0.000   6.519
 Approx polarizability:   4.105  -0.000   4.105  -0.000   0.000   4.105

                      1                      2                      3
                     T2                     T2                     T2
 Frequencies --   1253.4106              1253.4106              1253.4106
 Red. masses --      1.1920                 1.1920                 1.1920
 Frc consts  --      1.1033                 1.1033                 1.1033
 IR Inten    --    157.2394               157.2394               157.2394

                      4                      5                      6
                      E                      E                     T2
 Frequencies --   1261.4115              1261.4115              2721.7771
 Red. masses --      1.0078                 1.0078                 1.0906
 Frc consts  --      0.9448                 0.9448                 4.7600
 IR Inten    --      0.0000                 0.0000                75.9747

                      7                      8                      9
                     T2                     T2                     A1
 Frequencies --   2721.7771              2721.7771              2827.6986
 Red. masses --      1.0906                 1.0906                 1.0078
 Frc consts  --      4.7600                 4.7600                 4.7479
 IR Inten    --     75.9747                75.9747                 0.0000

 - Thermochemistry -
 -------------------
 Temperature   298.150 Kelvin.  Pressure   1.00000 Atm.
 Atom     1 has atomic number  6 and mass  12.00000

 Molecular mass:    16.03130 amu.
 Principal axes and moments of inertia in atomic units:
                           1         2         3
     Eigenvalues --    11.28750  11.28750  11.28750
           X            0.30030   0.54892   0.78007
           Y            0.13728   0.78443  -0.60484
           Z            0.94391  -0.28873  -0.16021
 This molecule is a spherical top.
 Rotational symmetry number 12.
 Rotational temperatures (Kelvin)      7.67344     7.67344     7.67344
 Rotational constants (GHZ):         159.88854   159.88854   159.88854
 Zero-point vibrational energy     103333.9 (Joules/Mol)
                                   24.69740 (Kcal/Mol)
 Vibrational temperatures:   1803.38  1803.38  1803.38  1814.89  1814.89
          (Kelvin)           3916.03  3916.03  3916.03  4068.43

 Zero-point correction=                           0.039358 (Hartree/Particle)
 Thermal correction to Energy=                    0.042257
 Thermal correction to Enthalpy=                  0.043201
 Thermal correction to Gibbs Free Energy=         0.022051
 Sum of electronic and zero-point Energies=              0.019773
 Sum of electronic and thermal Energies=                 0.022672
 Sum of electronic and thermal Enthalpies=               0.023616
 Sum of electronic and thermal Free Energies=            0.002466

                     E (Thermal)             CV                S
                      KCal/Mol        Cal/Mol-Kelvin    Cal/Mol-Kelvin
 Total                   26.517              6.818             44.514
 Electronic               0.000              0.000              0.000
 Translational            0.889              2.981             34.261
 Rotational               0.889              2.981             10.089
 Vibrational             24.739              0.856              0.164

 Optimization completed.
    -- Stationary point found.
 Normal termination of Gaussian 16 at Fri Sep  6 16:31:03 2024.
