 Gaussian 16, Revision A.03,
 Gaussian 16:  EM64M-G16RevA.03 25-Dec-2016

 ----------------------------------------------------------------------
 #p opt=tight freq=raman hf/6-311++g(2d,3p) guess=save pop=(hirshfeld,f
 ull,nbo) geom=connectivity polar
 ----------------------------------------------------------------------

 --------------------------------------------
 CH4 HF 6-311++g(2d,3p) Opt Freq - Full - NBO
 --------------------------------------------
 Symbolic Z-matrix:
 Charge =  0 Multiplicity = 1

 SCF Done:  E(RHF) =  -40.2115007525     A.U. after    8 cycles
 SCF Done:  E(RHF) =  -40.2118785900     A.U. after    7 cycles
 SCF Done:  E(RHF) =  -40.2118794904     A.U. after    5 cycles
 Optimization completed.
    -- Stationary point found.
 Normal termination of Gaussian 16 at Fri Sep  6 16:33:21 2024.

 ----------------------------------------------------------------------
 #P Geom=AllCheck Guess=TCheck SCRF=Check GenChk RHF/6-311++G(2d,3p) Fr
 eq
 ----------------------------------------------------------------------

 Structure from the checkpoint file:  "CH4_HF_6311pp2d3p_Opt_Freq_Full_NBO_Raman.chk"
 --------------------------------------------
 CH4 HF 6-311++g(2d,3p) Opt Freq - Full - NBO
 --------------------------------------------
 Charge =  0 Multiplicity = 1

                         Standard orientation:
 ---------------------------------------------------------------------
 Center     Atomic      Atomic             Coordinates (Angstroms)
 Number     Number       Type             X           Y           Z
 ---------------------------------------------------------------------
      1          6           0        0.000000    0.000000    0.000000
      2          1           0        0.624519    0.624519    0.624519
      3          1           0       -0.624519   -0.624519    0.624519
      4          1           0       -0.624519    0.624519   -0.624519
      5          1           0        0.624519   -0.624519   -0.624519
 ---------------------------------------------------------------------

 SCF Done:  E(RHF) =  -40.2118794904     A.U. after    1 cycles

 The electronic state is 1-A1.
 Alpha  occ. eigenvalues --  -11.20211  -0.94580  -0.54688  -0.54688  -0.54688
 Alpha virt. eigenvalues --    0.04125   0.07539   0.07539   0.07539   0.14997
 Alpha virt. eigenvalues --    0.14997   0.14997   0.17793   0.28969   0.28969
 Alpha virt. eigenvalues --    0.28969   0.36281   0.40450   0.40450   0.47063

 Mulliken charges:
               1
     1  C    0.064018
     2  H   -0.016005
     3  H   -0.016005
     4  H   -0.016005
     5  H   -0.016005
 Sum of Mulliken charges =  -0.00000

 Dipole moment (field-independent basis, Debye):
    X=             -0.0000    Y=             -0.0000    Z=             -0.0000  Tot=              0.0000
 Quadrupole moment (field-independent basis, Debye-Ang):
   XX=             -8.3971   YY=             -8.3971   ZZ=             -8.3971
   XY=              0.0000   XZ=             -0.0000   YZ=             -0.0000

  Exact polarizability:  15.573  -0.000  15.573   0.000   0.000  15.573
 Approx polarizability:  13.000   0.000  13.000   0.000  -0.000  13.000

 Summary of Natural Population Analysis:

                                       Natural Population
                Natural  -----------------------------------------------
    Atom  No    Charge         Core      Valence    Rydberg      Total
 -----------------------------------------------------------------------
      C    1   -0.70473      1.99953     4.70069    0.00451     6.70473
      H    2    0.17618      0.00000     0.82227    0.00155     0.82382
      H    3    0.17618      0.00000     0.82227    0.00155     0.82382
      H    4    0.17618      0.00000     0.82227    0.00155     0.82382
      H    5    0.17618      0.00000     0.82227    0.00155     0.82382
 =======================================================================
   * Total *   -0.00000      1.99953     7.98975    0.01071    10.00000

                      1                      2                      3
                     T2                     T2                     T2
 Frequencies --   1455.9291              1455.9291              1455.9291
 Red. masses --      1.1792                 1.1792                 1.1792
 Frc consts  --      1.4727                 1.4727                 1.4727
 IR Inten    --      9.8023                 9.8023                 9.8023
 Raman Activ --      0.0012                 0.0012                 0.0012

                      4                      5                      6
                      E                      E                     A1
 Frequencies --   1669.1179              1669.1179              3154.1718
 Red. masses --      1.0078                 1.0078                 1.0078
 Frc consts  --      1.6543                 1.6543                 5.9075
 IR Inten    --      0.0000                 0.0000                 0.0000
 Raman Activ --      4.5255                 4.5255               217.2720

                      7                      8                      9
                     T2                     T2                     T2
 Frequencies --   3250.8920              3250.8920              3250.8920
 Red. masses --      1.1015                 1.1015                 1.1015
 Frc consts  --      6.8586                 6.8586                 6.8586
 IR Inten    --     37.7198                37.7198                37.7198
 Raman Activ --     51.7772                51.7772                51.7772

 - Thermochemistry -
 -------------------
 Temperature   298.150 Kelvin.  Pressure   1.00000 Atm.
 Atom     1 has atomic number  6 and mass  12.00000

 Molecular mass:    16.03130 amu.
 Principal axes and moments of inertia in atomic units:
                           1         2         3
     Eigenvalues --    11.22961  11.22961  11.22961
           X           -0.22610   0.97005   0.08882
           Y            0.97247   0.23005  -0.03701
           Z            0.05634  -0.07801   0.99536
 This molecule is a spherical top.
 Rotational symmetry number 12.
 Rotational temperatures (Kelvin)      7.71300     7.71300     7.71300
 Rotational constants (GHZ):         160.71279   160.71279   160.71279
 Zero-point vibrational energy     123292.3 (Joules/Mol)
                                   29.46758 (Kcal/Mol)
 Vibrational temperatures:   2094.76  2094.76  2094.76  2401.49  2401.49
          (Kelvin)           4538.15  4677.31  4677.31  4677.31

 Zero-point correction=                           0.046960 (Hartree/Particle)
 Thermal correction to Energy=                    0.049815
 Thermal correction to Enthalpy=                  0.050759
 Thermal correction to Gibbs Free Energy=         0.029668
 Sum of electronic and zero-point Energies=            -40.164920
 Sum of electronic and thermal Energies=               -40.162065
 Sum of electronic and thermal Enthalpies=             -40.161121
 Sum of electronic and thermal Free Energies=          -40.182211

                     E (Thermal)             CV                S
                      KCal/Mol        Cal/Mol-Kelvin    Cal/Mol-Kelvin
 Total                   31.259              6.306             44.389
 Electronic               0.000              0.000              0.000
 Translational            0.889              2.981             34.261
 Rotational               0.889              2.981             10.074
 Vibrational             29.482              0.344              0.054

 Optimization completed.
    -- Stationary point found.
 Normal termination of Gaussian 16 at Fri Sep  6 16:33:23 2024.
