 Gaussian 16, Revision A.03,
 Gaussian 16:  EM64M-G16RevA.03 25-Dec-2016

 ----------------------------------------------------------------------
 #p opt=tight freq=raman b3lyp/6-311++g(2d,3p) guess=save pop=(hirshfel
 d,full,nbo) geom=connectivity polar
 ----------------------------------------------------------------------

 ---------------------------------------------
 CO2 DFT 6-311++g(2d,3p) Opt Freq - Full - NBO
 ---------------------------------------------
 Symbolic Z-matrix:
 Charge =  0 Multiplicity = 1

 SCF Done:  E(RB3LYP) =  -188.619683750     A.U. after    8 cycles
 SCF Done:  E(RB3LYP) =  -188.650508201     A.U. after    9 cycles
 SCF Done:  E(RB3LYP) =  -188.650639671     A.U. after    7 cycles
 SCF Done:  E(RB3LYP) =  -188.650639686     A.U. after    5 cycles
 Optimization completed.
    -- Stationary point found.
 Normal termination of Gaussian 16 at Fri Sep  6 10:18:17 2024.

 ----------------------------------------------------------------------
 #P Geom=AllCheck Guess=TCheck SCRF=Check GenChk RB3LYP/6-311++G(2d,3p)
  Freq
 ----------------------------------------------------------------------

 Structure from the checkpoint file:  "CO2_DFT_B3LPY_6311pp2d3p_Opt_Freq_Full_NBO.chk"
 ---------------------------------------------
 CO2 DFT 6-311++g(2d,3p) Opt Freq - Full - NBO
 ---------------------------------------------
 Charge =  0 Multiplicity = 1

                         Standard orientation:
 ---------------------------------------------------------------------
 Center     Atomic      Atomic             Coordinates (Angstroms)
 Number     Number       Type             X           Y           Z
 ---------------------------------------------------------------------
      1          6           0        0.000000    0.000000    0.000000
      2          8           0        0.000000    0.000000    1.160358
      3          8           0        0.000000    0.000000   -1.160358
 ---------------------------------------------------------------------

 SCF Done:  E(RB3LYP) =  -188.650639686     A.U. after    1 cycles

 The electronic state is 1-SGG.
 Alpha  occ. eigenvalues --  -19.21489 -19.21487 -10.36876  -1.17605  -1.13657
 Alpha  occ. eigenvalues --   -0.57604  -0.53435  -0.52901  -0.52901  -0.38545
 Alpha  occ. eigenvalues --   -0.38545
 Alpha virt. eigenvalues --   -0.01917   0.01858   0.01858   0.05184   0.05386
 Alpha virt. eigenvalues --    0.05386   0.13490   0.17599   0.18613   0.18613
 Alpha virt. eigenvalues --    0.23590   0.25578   0.25578   0.27855   0.32709

 Mulliken charges:
               1
     1  C    0.431797
     2  O   -0.215898
     3  O   -0.215898
 Sum of Mulliken charges =   0.00000

 Dipole moment (field-independent basis, Debye):
    X=             -0.0000    Y=              0.0000    Z=              0.0000  Tot=              0.0000
 Quadrupole moment (field-independent basis, Debye-Ang):
   XX=            -14.9165   YY=            -14.9165   ZZ=            -19.2897
   XY=              0.0000   XZ=              0.0000   YZ=              0.0000

  Exact polarizability:  10.577   0.000  10.577  -0.000   0.000  25.685
 Approx polarizability:  13.722  -0.000  13.722  -0.000  -0.000  46.998

 Summary of Natural Population Analysis:

                                       Natural Population
                Natural  -----------------------------------------------
    Atom  No    Charge         Core      Valence    Rydberg      Total
 -----------------------------------------------------------------------
      C    1    1.01407      1.99971     2.95295    0.03327     4.98593
      O    2   -0.50703      1.99971     6.47799    0.02933     8.50703
      O    3   -0.50703      1.99971     6.47799    0.02933     8.50703
 =======================================================================
   * Total *   -0.00000      5.99914    15.90894    0.09193    22.00000

                      1                      2                      3
                     PIU                    PIU                    SGG
 Frequencies --    675.6624               675.6624              1364.3189
 Red. masses --     12.8774                12.8774                15.9949
 Frc consts  --      3.4637                 3.4637                17.5414
 IR Inten    --     29.1385                29.1385                 0.0000
 Raman Activ --      0.0000                 0.0000                18.9623

                      4
                     SGU
 Frequencies --   2400.2488
 Red. masses --     12.8774
 Frc consts  --     43.7109
 IR Inten    --    678.1805
 Raman Activ --      0.0000

 - Thermochemistry -
 -------------------
 Temperature   298.150 Kelvin.  Pressure   1.00000 Atm.
 Atom     1 has atomic number  6 and mass  12.00000

 Molecular mass:    43.98983 amu.
 Principal axes and moments of inertia in atomic units:
                           1         2         3
     Eigenvalues --     0.00000 153.81315 153.81315
           X           -0.00000   1.00000  -0.00000
           Y            0.00000   0.00000   1.00000
           Z            1.00000   0.00000  -0.00000
 This molecule is a prolate symmetric top.
 Rotational symmetry number  2.
 Rotational temperature (Kelvin)      0.56311
 Rotational constant (GHZ):          11.733335
 Zero-point vibrational energy      30599.8 (Joules/Mol)
                                    7.31354 (Kcal/Mol)
 Vibrational temperatures:    972.13   972.13  1962.95  3453.42
          (Kelvin)

 Zero-point correction=                           0.011655 (Hartree/Particle)
 Thermal correction to Energy=                    0.014270
 Thermal correction to Enthalpy=                  0.015214
 Thermal correction to Gibbs Free Energy=        -0.009035
 Sum of electronic and zero-point Energies=           -188.638985
 Sum of electronic and thermal Energies=              -188.636370
 Sum of electronic and thermal Enthalpies=            -188.635426
 Sum of electronic and thermal Free Energies=         -188.659675

                     E (Thermal)             CV                S
                      KCal/Mol        Cal/Mol-Kelvin    Cal/Mol-Kelvin
 Total                    8.954              6.843             51.037
 Electronic               0.000              0.000              0.000
 Translational            0.889              2.981             37.270
 Rotational               0.592              1.987             13.073
 Vibrational              7.473              1.875              0.694

 Optimization completed.
    -- Stationary point found.
 Normal termination of Gaussian 16 at Fri Sep  6 10:18:22 2024.
