 Gaussian 16, Revision A.03,
 Gaussian 16:  EM64M-G16RevA.03 25-Dec-2016

 ----------------------------------------------------------------------
 #p opt=tight freq=raman uhf/aug-cc-pvtz guess=save pop=(hirshfeld,full
 ,nbo) geom=connectivity polar
 ----------------------------------------------------------------------

 ---------------------------------------------
 CO2 uHF 6-311++g(2d,3p) Opt Freq - Full - NBO
 ---------------------------------------------
 Symbolic Z-matrix:
 Charge =  0 Multiplicity = 1

 SCF Done:  E(UHF) =  -187.656128471     A.U. after   10 cycles
 SCF Done:  E(UHF) =  -187.711667748     A.U. after   10 cycles
 SCF Done:  E(UHF) =  -187.712139054     A.U. after    8 cycles
 SCF Done:  E(UHF) =  -187.712139118     A.U. after    5 cycles
 Optimization completed.
    -- Stationary point found.

 1\1\GINC-JEFFSMACSTUDIO\FOpt\UHF\Aug-CC-pVTZ\C1O2\ROOT\06-Sep-2024\0\\
 #p opt=tight freq=raman uhf/aug-cc-pvtz guess=save pop=(hirshfeld,full
 ,nbo) geom=connectivity polar\\CO2 uHF 6-311++g(2d,3p) Opt Freq - Full
  - NBO\\0,1\C,-0.7866184,0.11754069,0.\O,0.3496312021,0.11754069,0.\O,
 -1.9228680021,0.11754069,0.\\Version=EM64M-G16RevA.03\State=1-SGG\HF=-
 187.7121391\S2=0.\S2-1=0.\S2A=0.\RMSD=2.939e-09\RMSF=4.200e-08\Dipole=
 0.,0.,0.\Quadrupole=-2.5350976,1.2675488,1.2675488,0.,0.,0.\PG=D*H [O(
 C1),C*(O1.O1)]\\@

 Normal termination of Gaussian 16 at Fri Sep  6 10:33:37 2024.

 --------------------------------------------------------------------
 #P Geom=AllCheck Guess=TCheck SCRF=Check GenChk UHF/Aug-CC-pVTZ Freq
 --------------------------------------------------------------------

 Structure from the checkpoint file:  "CO2_DFT_uB3LPY_apVTZ_Opt_Freq_Full_NBO.chk"
 ---------------------------------------------
 CO2 uHF 6-311++g(2d,3p) Opt Freq - Full - NBO
 ---------------------------------------------
 Charge =  0 Multiplicity = 1

                         Standard orientation:
 ---------------------------------------------------------------------
 Center     Atomic      Atomic             Coordinates (Angstroms)
 Number     Number       Type             X           Y           Z
 ---------------------------------------------------------------------
      1          6           0        0.000000    0.000000    0.000000
      2          8           0        0.000000    0.000000    1.136250
      3          8           0        0.000000    0.000000   -1.136250
 ---------------------------------------------------------------------

 SCF Done:  E(UHF) =  -187.712139118     A.U. after    1 cycles

 The electronic state is 1-SGG.
 Alpha  occ. eigenvalues --  -20.64658 -20.64653 -11.44737  -1.54554  -1.49250
 Alpha  occ. eigenvalues --   -0.79820  -0.74805  -0.72660  -0.72660  -0.54632
 Alpha  occ. eigenvalues --   -0.54632
 Alpha virt. eigenvalues --    0.04808   0.07238   0.07238   0.07874   0.16124
 Alpha virt. eigenvalues --    0.16343   0.16343   0.21030   0.21537   0.21537
 Alpha virt. eigenvalues --    0.22496   0.25031   0.25031   0.27880   0.27880

  Beta  occ. eigenvalues --  -20.64658 -20.64653 -11.44737  -1.54554  -1.49250
  Beta  occ. eigenvalues --   -0.79820  -0.74805  -0.72660  -0.72660  -0.54632
  Beta  occ. eigenvalues --   -0.54632
  Beta virt. eigenvalues --    0.04808   0.07238   0.07238   0.07874   0.16124
  Beta virt. eigenvalues --    0.16343   0.16343   0.21030   0.21537   0.21537
  Beta virt. eigenvalues --    0.22496   0.25031   0.25031   0.27880   0.27880

 Mulliken charges and spin densities:
               1          2
     1  C    0.438727   0.000000
     2  O   -0.219363   0.000000
     3  O   -0.219363   0.000000
 Sum of Mulliken charges =  -0.00000   0.00000

 Dipole moment (field-independent basis, Debye):
    X=             -0.0000    Y=              0.0000    Z=              0.0000  Tot=              0.0000
 Quadrupole moment (field-independent basis, Debye-Ang):
   XX=            -14.6716   YY=            -14.6716   ZZ=            -19.7863
   XY=              0.0000   XZ=              0.0000   YZ=              0.0000

  Exact polarizability:  11.524   0.000  11.524  -0.000   0.000  22.735
 Approx polarizability:  10.839  -0.000  10.839  -0.000  -0.000  22.115

 Summary of Natural Population Analysis:

                                       Natural Population
                Natural  -----------------------------------------------
    Atom  No    Charge         Core      Valence    Rydberg      Total
 -----------------------------------------------------------------------
      C    1    0.59957      0.99985     1.38458    0.01600     2.40043
      O    2   -0.29978      0.99985     3.27745    0.02249     4.29978
      O    3   -0.29978      0.99985     3.27745    0.02249     4.29978
 =======================================================================
   * Total *   -0.00000      2.99954     7.93948    0.06098    11.00000

                      1                      2                      3
                     PIU                    PIU                    SGG
 Frequencies --    774.9763               774.9763              1509.1903
 Red. masses --     12.8774                12.8774                15.9949
 Frc consts  --      4.5567                 4.5567                21.4645
 IR Inten    --     60.3621                60.3621                 0.0000
 Raman Activ --      0.0000                 0.0000                16.6542

                      4
                     SGU
 Frequencies --   2548.9391
 Red. masses --     12.8774
 Frc consts  --     49.2942
 IR Inten    --   1078.4212
 Raman Activ --      0.0000

 - Thermochemistry -
 -------------------
 Temperature   298.150 Kelvin.  Pressure   1.00000 Atm.
 Atom     1 has atomic number  6 and mass  12.00000

 Molecular mass:    43.98983 amu.
 Principal axes and moments of inertia in atomic units:
                           1         2         3
     Eigenvalues --     0.00000 147.48816 147.48816
           X           -0.00000   1.00000  -0.00000
           Y            0.00000   0.00000   1.00000
           Z            1.00000   0.00000  -0.00000
 This molecule is a prolate symmetric top.
 Rotational symmetry number  2.
 Rotational temperature (Kelvin)      0.58726
 Rotational constant (GHZ):          12.236516
 Zero-point vibrational energy      33543.8 (Joules/Mol)
                                    8.01716 (Kcal/Mol)
 Vibrational temperatures:   1115.02  1115.02  2171.39  3667.35
          (Kelvin)

 Zero-point correction=                           0.012776 (Hartree/Particle)
 Thermal correction to Energy=                    0.015313
 Thermal correction to Enthalpy=                  0.016257
 Thermal correction to Gibbs Free Energy=        -0.007845
 Sum of electronic and zero-point Energies=           -187.699363
 Sum of electronic and thermal Energies=              -187.696826
 Sum of electronic and thermal Enthalpies=            -187.695882
 Sum of electronic and thermal Free Energies=         -187.719985

                     E (Thermal)             CV                S
                      KCal/Mol        Cal/Mol-Kelvin    Cal/Mol-Kelvin
 Total                    9.609              6.428             50.729
 Electronic               0.000              0.000              0.000
 Translational            0.889              2.981             37.270
 Rotational               0.592              1.987             12.990
 Vibrational              8.128              1.460              0.469

 Optimization completed.
    -- Stationary point found.

 1\1\GINC-JEFFSMACSTUDIO\Freq\UHF\Aug-CC-pVTZ\C1O2\ROOT\06-Sep-2024\0\\
 #P Geom=AllCheck Guess=TCheck SCRF=Check GenChk UHF/Aug-CC-pVTZ Freq\\
 CO2 uHF 6-311++g(2d,3p) Opt Freq - Full - NBO\\0,1\C,-0.7866184,0.1175
 4069,0.\O,0.3496312021,0.11754069,0.\O,-1.9228680021,0.11754069,0.\\Ve
 rsion=EM64M-G16RevA.03\State=1-SGG\HF=-187.7121391\S2=0.\S2-1=0.\S2A=0
 .\RMSD=1.451e-09\RMSF=1.534e-08\ZeroPoint=0.0127762\Thermal=0.0153133\
 Dipole=0.,0.,0.\DipoleDeriv=3.1069841,0.,0.,0.,0.7350669,0.,0.,0.,0.73
 50669,-1.5534921,0.,0.,0.,-0.3675334,0.,0.,0.,-0.3675334,-1.5534921,0.

 Normal termination of Gaussian 16 at Fri Sep  6 10:33:45 2024.
