 Gaussian 16, Revision A.03,
 Gaussian 16:  EM64M-G16RevA.03 25-Dec-2016

 ----------------------------------------------------------------------
 #p opt=tight freq=raman uwb97xd/aug-cc-pvtz guess=save pop=(hirshfeld,
 full,nbo) geom=connectivity polar
 ----------------------------------------------------------------------

 -------------------------------------------------
 CO2 DFT uWB97XD aug-cc-pVTZ Opt Freq - Full - NBO
 -------------------------------------------------
 Symbolic Z-matrix:
 Charge =  0 Multiplicity = 1

 SCF Done:  E(UwB97XD) =  -188.563608193     A.U. after    9 cycles
 SCF Done:  E(UwB97XD) =  -188.598433808     A.U. after    9 cycles
 SCF Done:  E(UwB97XD) =  -188.598472863     A.U. after    7 cycles
 SCF Done:  E(UwB97XD) =  -188.598472870     A.U. after    4 cycles
 Optimization completed.
    -- Stationary point found.
 Normal termination of Gaussian 16 at Fri Sep  6 10:50:01 2024.

 ----------------------------------------------------------------------
 #P Geom=AllCheck Guess=TCheck SCRF=Check GenChk UwB97XD/Aug-CC-pVTZ Fr
 eq
 ----------------------------------------------------------------------

 Structure from the checkpoint file:  "CO2_DFT_uWB97XD_apVTZ_Opt_Freq_Full_NBO.chk"
 -------------------------------------------------
 CO2 DFT uWB97XD aug-cc-pVTZ Opt Freq - Full - NBO
 -------------------------------------------------
 Charge =  0 Multiplicity = 1

                         Standard orientation:
 ---------------------------------------------------------------------
 Center     Atomic      Atomic             Coordinates (Angstroms)
 Number     Number       Type             X           Y           Z
 ---------------------------------------------------------------------
      1          6           0        0.000000    0.000000    0.000000
      2          8           0        0.000000    0.000000    1.156497
      3          8           0        0.000000    0.000000   -1.156497
 ---------------------------------------------------------------------

 SCF Done:  E(UwB97XD) =  -188.598472870     A.U. after    1 cycles

 The electronic state is 1-SGG.
 Alpha  occ. eigenvalues --  -19.33647 -19.33642 -10.48013  -1.27305  -1.23074
 Alpha  occ. eigenvalues --   -0.66167  -0.61676  -0.61676  -0.61674  -0.46350
 Alpha  occ. eigenvalues --   -0.46350
 Alpha virt. eigenvalues --    0.04436   0.07745   0.07745   0.08317   0.10966
 Alpha virt. eigenvalues --    0.10966   0.15749   0.16724   0.16724   0.17996
 Alpha virt. eigenvalues --    0.22829   0.23910   0.23910   0.27262   0.27262

  Beta  occ. eigenvalues --  -19.33647 -19.33642 -10.48013  -1.27305  -1.23074
  Beta  occ. eigenvalues --   -0.66167  -0.61676  -0.61676  -0.61674  -0.46350
  Beta  occ. eigenvalues --   -0.46350
  Beta virt. eigenvalues --    0.04436   0.07745   0.07745   0.08317   0.10966
  Beta virt. eigenvalues --    0.10966   0.15749   0.16724   0.16724   0.17996
  Beta virt. eigenvalues --    0.22829   0.23910   0.23910   0.27262   0.27262

 Mulliken charges and spin densities:
               1          2
     1  C    0.470369  -0.000000
     2  O   -0.235184  -0.000000
     3  O   -0.235184  -0.000000
 Sum of Mulliken charges =  -0.00000  -0.00000

 Dipole moment (field-independent basis, Debye):
    X=             -0.0000    Y=             -0.0000    Z=              0.0000  Tot=              0.0000
 Quadrupole moment (field-independent basis, Debye-Ang):
   XX=            -14.7223   YY=            -14.7223   ZZ=            -19.1423
   XY=              0.0000   XZ=              0.0000   YZ=              0.0000

  Exact polarizability:  12.691   0.000  12.691  -0.000   0.000  25.750
 Approx polarizability:  13.065  -0.000  13.065  -0.000  -0.000  33.660

 Summary of Natural Population Analysis:

                                       Natural Population
                Natural  -----------------------------------------------
    Atom  No    Charge         Core      Valence    Rydberg      Total
 -----------------------------------------------------------------------
      C    1    0.50013      0.99985     1.48539    0.01463     2.49987
      O    2   -0.25006      0.99987     3.23278    0.01742     4.25006
      O    3   -0.25006      0.99987     3.23278    0.01742     4.25006
 =======================================================================
   * Total *   -0.00000      2.99959     7.95095    0.04946    11.00000

                      1                      2                      3
                     PIU                    PIU                    SGG
 Frequencies --    686.4310               686.4310              1397.2163
 Red. masses --     12.8774                12.8774                15.9949
 Frc consts  --      3.5750                 3.5750                18.3975
 IR Inten    --     31.4862                31.4862                 0.0000
 Raman Activ --      0.0000                 0.0000                21.0292

                      4
                     SGU
 Frequencies --   2443.4913
 Red. masses --     12.8774
 Frc consts  --     45.3001
 IR Inten    --    725.4445
 Raman Activ --      0.0000

 - Thermochemistry -
 -------------------
 Temperature   298.150 Kelvin.  Pressure   1.00000 Atm.
 Atom     1 has atomic number  6 and mass  12.00000

 Molecular mass:    43.98983 amu.
 Principal axes and moments of inertia in atomic units:
                           1         2         3
     Eigenvalues --     0.00000 152.79132 152.79132
           X           -0.00000   1.00000  -0.00000
           Y            0.00000   0.00000   1.00000
           Z            1.00000   0.00000  -0.00000
 This molecule is a prolate symmetric top.
 Rotational symmetry number  2.
 Rotational temperature (Kelvin)      0.56688
 Rotational constant (GHZ):          11.811805
 Zero-point vibrational energy      31184.1 (Joules/Mol)
                                    7.45317 (Kcal/Mol)
 Vibrational temperatures:    987.62   987.62  2010.28  3515.64
          (Kelvin)

 Zero-point correction=                           0.011877 (Hartree/Particle)
 Thermal correction to Energy=                    0.014482
 Thermal correction to Enthalpy=                  0.015426
 Thermal correction to Gibbs Free Energy=        -0.008803
 Sum of electronic and zero-point Energies=           -188.586595
 Sum of electronic and thermal Energies=              -188.583991
 Sum of electronic and thermal Enthalpies=            -188.583047
 Sum of electronic and thermal Free Energies=         -188.607276

                     E (Thermal)             CV                S
                      KCal/Mol        Cal/Mol-Kelvin    Cal/Mol-Kelvin
 Total                    9.088              6.788             50.994
 Electronic               0.000              0.000              0.000
 Translational            0.889              2.981             37.270
 Rotational               0.592              1.987             13.060
 Vibrational              7.606              1.820              0.664

 Optimization completed.
    -- Stationary point found.
 Normal termination of Gaussian 16 at Fri Sep  6 10:51:22 2024.
