 Gaussian 16, Revision A.03,
 Gaussian 16:  EM64M-G16RevA.03 25-Dec-2016

 ----------------------------------------------------------------------
 #p opt=tight freq=raman pm6 guess=save pop=(hirshfeld,full,nbo) geom=c
 onnectivity polar
 ----------------------------------------------------------------------

 ----------------
 CO2 PM6 Opt Freq
 ----------------
 Symbolic Z-matrix:
 Charge =  0 Multiplicity = 1

 SCF Done:  E(RPM6) = -0.107962278220     A.U. after   10 cycles
 SCF Done:  E(RPM6) = -0.134941745953     A.U. after    9 cycles
 SCF Done:  E(RPM6) = -0.135013896410     A.U. after    8 cycles
 SCF Done:  E(RPM6) = -0.135013897575     A.U. after    6 cycles
 Optimization completed.
    -- Stationary point found.
 Normal termination of Gaussian 16 at Fri Sep  6 10:15:45 2024.

 -------------------------------------------------------------
 #P Geom=AllCheck Guess=TCheck SCRF=Check GenChk RPM6/ZDO Freq
 -------------------------------------------------------------

 Structure from the checkpoint file:  "CO2_PM6_Opt_Freq_Full_NBO.chk"
 ----------------
 CO2 PM6 Opt Freq
 ----------------
 Charge =  0 Multiplicity = 1

                         Standard orientation:
 ---------------------------------------------------------------------
 Center     Atomic      Atomic             Coordinates (Angstroms)
 Number     Number       Type             X           Y           Z
 ---------------------------------------------------------------------
      1          6           0        0.000000    0.000000    0.000000
      2          8           0        0.000000    0.000000    1.170213
      3          8           0        0.000000    0.000000   -1.170213
 ---------------------------------------------------------------------

 SCF Done:  E(RPM6) = -0.135013897575     A.U. after    2 cycles

 The electronic state is 1-SGG.
 Alpha  occ. eigenvalues --   -1.30667  -1.23778  -0.79135  -0.66417  -0.66417
 Alpha  occ. eigenvalues --   -0.60513  -0.47745  -0.47745
 Alpha virt. eigenvalues --    0.00921   0.00921   0.04184   0.14310

 Mulliken charges:
               1
     1  C    0.639239
     2  O   -0.319620
     3  O   -0.319620
 Sum of Mulliken charges =  -0.00000

 Dipole moment (field-independent basis, Debye):
    X=             -0.0000    Y=              0.0000    Z=             -0.0000  Tot=              0.0000
 N-N= 4.934700474201D+01 E-N=-4.335981442637D+01  KE=-4.315589002763D+01
 Symmetry AG   KE=-1.187053588417D+01
 Symmetry B1G  KE= 0.000000000000D+00
 Symmetry B2G  KE=-5.170595805054D+00
 Symmetry B3G  KE=-5.170595805054D+00
 Symmetry AU   KE= 0.000000000000D+00
 Symmetry B1U  KE=-1.157929433874D+01
 Symmetry B2U  KE=-4.682434097309D+00
 Symmetry B3U  KE=-4.682434097309D+00
 StAtR1:  DoIntr=F IAtCor=3 NETot=      16 Failed=F Sum=  6.00D+00 SumC=  0.00D+00

  Exact polarizability:   2.043   0.000   2.043  -0.000   0.000  36.361
 Approx polarizability:   1.324  -0.000   1.324  -0.000  -0.000  36.657

 Summary of Natural Population Analysis:

                                       Natural Population
                Natural  -----------------------------------------------
    Atom  No    Charge         Core      Valence    Rydberg      Total
 -----------------------------------------------------------------------
      C    1    0.63924      2.00000     3.36076    0.00000     5.36076
      O    2   -0.31962      2.00000     6.31962    0.00000     8.31962
      O    3   -0.31962      2.00000     6.31962    0.00000     8.31962
 =======================================================================
   * Total *   -0.00000      6.00000    16.00000    0.00000    22.00000

                      1                      2                      3
                     PIU                    PIU                    SGG
 Frequencies --    538.4627               538.4627              1377.4626
 Red. masses --     12.8774                12.8774                15.9949
 Frc consts  --      2.1998                 2.1998                17.8810
 IR Inten    --     50.9867                50.9867                 0.0000
 Raman Activ --      0.0000                 0.0000                37.1159

                      4
                     SGU
 Frequencies --   2320.8176
 Red. masses --     12.8774
 Frc consts  --     40.8657
 IR Inten    --    892.6269
 Raman Activ --      0.0000

 - Thermochemistry -
 -------------------
 Temperature   298.150 Kelvin.  Pressure   1.00000 Atm.
 Atom     1 has atomic number  6 and mass  12.00000

 Molecular mass:    43.98983 amu.
 Principal axes and moments of inertia in atomic units:
                           1         2         3
     Eigenvalues --     0.00000 156.43704 156.43704
           X           -0.00000   1.00000  -0.00000
           Y            0.00000   0.00000   1.00000
           Z            1.00000   0.00000  -0.00000
 This molecule is a prolate symmetric top.
 Rotational symmetry number  2.
 Rotational temperature (Kelvin)      0.55367
 Rotational constant (GHZ):          11.536534
 Zero-point vibrational energy      28562.1 (Joules/Mol)
                                    6.82650 (Kcal/Mol)
 Warning -- explicit consideration of   2 degrees of freedom as
           vibrations may cause significant error
 Vibrational temperatures:    774.73   774.73  1981.86  3339.14
          (Kelvin)

 Zero-point correction=                           0.010879 (Hartree/Particle)
 Thermal correction to Energy=                    0.013642
 Thermal correction to Enthalpy=                  0.014586
 Thermal correction to Gibbs Free Energy=        -0.009900
 Sum of electronic and zero-point Energies=             -0.124135
 Sum of electronic and thermal Energies=                -0.121372
 Sum of electronic and thermal Enthalpies=              -0.120428
 Sum of electronic and thermal Free Energies=           -0.144913

                     E (Thermal)             CV                S
                      KCal/Mol        Cal/Mol-Kelvin    Cal/Mol-Kelvin
 Total                    8.560              7.416             51.534
 Electronic               0.000              0.000              0.000
 Translational            0.889              2.981             37.270
 Rotational               0.592              1.987             13.107
 Vibrational              7.079              2.448              1.157
 Vibration     1          0.893              1.165              0.569
 Vibration     2          0.893              1.165              0.569

 Optimization completed.
    -- Stationary point found.
 Normal termination of Gaussian 16 at Fri Sep  6 10:15:46 2024.
