 Gaussian 16, Revision A.03,
 Gaussian 16:  EM64M-G16RevA.03 25-Dec-2016

 ----------------------------------------------------------------------
 #p opt=tight freq=raman hf/6-311++g(2d,3p) guess=save pop=(hirshfeld,f
 ull,nbo) geom=connectivity polar
 ----------------------------------------------------------------------

 --------------------------------------------
 CO2 HF 6-311++g(2d,3p) Opt Freq - Full - NBO
 --------------------------------------------
 Symbolic Z-matrix:
 Charge =  0 Multiplicity = 1

 SCF Done:  E(RHF) =  -187.641183775     A.U. after   10 cycles
 SCF Done:  E(RHF) =  -187.696974810     A.U. after   10 cycles
 SCF Done:  E(RHF) =  -187.697517732     A.U. after    8 cycles
 SCF Done:  E(RHF) =  -187.697517813     A.U. after    6 cycles
 Optimization completed.
    -- Stationary point found.
 Normal termination of Gaussian 16 at Fri Sep  6 10:17:27 2024.

 ----------------------------------------------------------------------
 #P Geom=AllCheck Guess=TCheck SCRF=Check GenChk RHF/6-311++G(2d,3p) Fr
 eq
 ----------------------------------------------------------------------

 Structure from the checkpoint file:  "CO2_HF_6311pp2d3p_Opt_Freq_Full_NBO.chk"
 --------------------------------------------
 CO2 HF 6-311++g(2d,3p) Opt Freq - Full - NBO
 --------------------------------------------
 Charge =  0 Multiplicity = 1

                         Standard orientation:
 ---------------------------------------------------------------------
 Center     Atomic      Atomic             Coordinates (Angstroms)
 Number     Number       Type             X           Y           Z
 ---------------------------------------------------------------------
      1          6           0        0.000000    0.000000    0.000000
      2          8           0        0.000000    0.000000    1.135492
      3          8           0        0.000000    0.000000   -1.135492
 ---------------------------------------------------------------------

 SCF Done:  E(RHF) =  -187.697517813     A.U. after    1 cycles

 The electronic state is 1-SGG.
 Alpha  occ. eigenvalues --  -20.64860 -20.64855 -11.45054  -1.54944  -1.49632
 Alpha  occ. eigenvalues --   -0.80060  -0.75127  -0.72755  -0.72755  -0.54734
 Alpha  occ. eigenvalues --   -0.54734
 Alpha virt. eigenvalues --    0.05699   0.09558   0.09558   0.09797   0.22491
 Alpha virt. eigenvalues --    0.22491   0.23454   0.27344   0.27344   0.28713
 Alpha virt. eigenvalues --    0.31610   0.34448   0.34448   0.36940   0.51054

 Mulliken charges:
               1
     1  C    0.599235
     2  O   -0.299617
     3  O   -0.299617
 Sum of Mulliken charges =  -0.00000

 Dipole moment (field-independent basis, Debye):
    X=             -0.0000    Y=             -0.0000    Z=              0.0000  Tot=              0.0000
 Quadrupole moment (field-independent basis, Debye-Ang):
   XX=            -14.7266   YY=            -14.7266   ZZ=            -19.7051
   XY=              0.0000   XZ=              0.0000   YZ=              0.0000

  Exact polarizability:   9.589   0.000   9.589  -0.000   0.000  22.443
 Approx polarizability:   9.106  -0.000   9.106  -0.000  -0.000  21.881

 Summary of Natural Population Analysis:

                                       Natural Population
                Natural  -----------------------------------------------
    Atom  No    Charge         Core      Valence    Rydberg      Total
 -----------------------------------------------------------------------
      C    1    1.21763      1.99970     2.74729    0.03538     4.78237
      O    2   -0.60881      1.99968     6.56907    0.04007     8.60881
      O    3   -0.60881      1.99968     6.56907    0.04007     8.60881
 =======================================================================
   * Total *    0.00000      5.99906    15.88542    0.11552    22.00000

                      1                      2                      3
                     PIU                    PIU                    SGG
 Frequencies --    780.0905               780.0905              1505.9628
 Red. masses --     12.8774                12.8774                15.9949
 Frc consts  --      4.6171                 4.6171                21.3728
 IR Inten    --     58.7054                58.7054                 0.0000
 Raman Activ --      0.0000                 0.0000                14.7679

                      4
                     SGU
 Frequencies --   2553.0363
 Red. masses --     12.8774
 Frc consts  --     49.4528
 IR Inten    --   1092.2603
 Raman Activ --      0.0000

 - Thermochemistry -
 -------------------
 Temperature   298.150 Kelvin.  Pressure   1.00000 Atm.
 Atom     1 has atomic number  6 and mass  12.00000

 Molecular mass:    43.98983 amu.
 Principal axes and moments of inertia in atomic units:
                           1         2         3
     Eigenvalues --     0.00000 147.29154 147.29154
           X           -0.00000   1.00000  -0.00000
           Y            0.00000   0.00000   1.00000
           Z            1.00000   0.00000  -0.00000
 This molecule is a prolate symmetric top.
 Rotational symmetry number  2.
 Rotational temperature (Kelvin)      0.58804
 Rotational constant (GHZ):          12.252851
 Zero-point vibrational energy      33610.2 (Joules/Mol)
                                    8.03302 (Kcal/Mol)
 Vibrational temperatures:   1122.38  1122.38  2166.74  3673.25
          (Kelvin)

 Zero-point correction=                           0.012801 (Hartree/Particle)
 Thermal correction to Energy=                    0.015335
 Thermal correction to Enthalpy=                  0.016280
 Thermal correction to Gibbs Free Energy=        -0.007818
 Sum of electronic and zero-point Energies=           -187.684716
 Sum of electronic and thermal Energies=              -187.682182
 Sum of electronic and thermal Enthalpies=            -187.681238
 Sum of electronic and thermal Free Energies=         -187.705336

                     E (Thermal)             CV                S
                      KCal/Mol        Cal/Mol-Kelvin    Cal/Mol-Kelvin
 Total                    9.623              6.411             50.717
 Electronic               0.000              0.000              0.000
 Translational            0.889              2.981             37.270
 Rotational               0.592              1.987             12.987
 Vibrational              8.142              1.443              0.460

 Optimization completed.
    -- Stationary point found.
 Normal termination of Gaussian 16 at Fri Sep  6 10:17:30 2024.
