 Gaussian 16, Revision A.03,
 Gaussian 16:  EM64M-G16RevA.03 25-Dec-2016

 ----------------------------------------------------------------------
 #p opt=tight freq=raman b3lyp/aug-cc-pvtz guess=save pop=(hirshfeld,fu
 ll,nbo) geom=connectivity polar
 ----------------------------------------------------------------------

 -----------------------------------------
 CO2 DFT aug-cc-pVTZ Opt Freq - Full - NBO
 -----------------------------------------
 Symbolic Z-matrix:
 Charge =  0 Multiplicity = 1

 SCF Done:  E(RB3LYP) =  -188.632269877     A.U. after    8 cycles
 SCF Done:  E(RB3LYP) =  -188.663281684     A.U. after    8 cycles
 SCF Done:  E(RB3LYP) =  -188.663386729     A.U. after    7 cycles
 SCF Done:  E(RB3LYP) =  -188.663386740     A.U. after    4 cycles
 Optimization completed.
    -- Stationary point found.
 Normal termination of Gaussian 16 at Fri Sep  6 10:19:20 2024.

 ----------------------------------------------------------------------
 #P Geom=AllCheck Guess=TCheck SCRF=Check GenChk RB3LYP/Aug-CC-pVTZ Fre
 q
 ----------------------------------------------------------------------

 Structure from the checkpoint file:  "CO2_DFT_B3LPY_apVTZ_Opt_Freq_Full_NBO.chk"
 -----------------------------------------
 CO2 DFT aug-cc-pVTZ Opt Freq - Full - NBO
 -----------------------------------------
 Charge =  0 Multiplicity = 1

                         Standard orientation:
 ---------------------------------------------------------------------
 Center     Atomic      Atomic             Coordinates (Angstroms)
 Number     Number       Type             X           Y           Z
 ---------------------------------------------------------------------
      1          6           0        0.000000    0.000000    0.000000
      2          8           0        0.000000    0.000000    1.160469
      3          8           0        0.000000    0.000000   -1.160469
 ---------------------------------------------------------------------

 SCF Done:  E(RB3LYP) =  -188.663386740     A.U. after    1 cycles

 The electronic state is 1-SGG.
 Alpha  occ. eigenvalues --  -19.21926 -19.21922 -10.37060  -1.17309  -1.13353
 Alpha  occ. eigenvalues --   -0.57424  -0.53199  -0.52823  -0.52823  -0.38452
 Alpha  occ. eigenvalues --   -0.38452
 Alpha virt. eigenvalues --   -0.02061   0.01974   0.01974   0.03994   0.04067
 Alpha virt. eigenvalues --    0.04067   0.09868   0.11515   0.11515   0.12618
 Alpha virt. eigenvalues --    0.17582   0.18109   0.18109   0.19084   0.19084

 Mulliken charges:
               1
     1  C    0.379256
     2  O   -0.189628
     3  O   -0.189628
 Sum of Mulliken charges =   0.00000

 Dipole moment (field-independent basis, Debye):
    X=             -0.0000    Y=              0.0000    Z=              0.0000  Tot=              0.0000
 Quadrupole moment (field-independent basis, Debye-Ang):
   XX=            -14.8779   YY=            -14.8779   ZZ=            -19.3843
   XY=              0.0000   XZ=              0.0000   YZ=              0.0000

  Exact polarizability:  12.749   0.000  12.749  -0.000  -0.000  26.022
 Approx polarizability:  16.507  -0.000  16.507  -0.000  -0.000  47.309

 Summary of Natural Population Analysis:

                                       Natural Population
                Natural  -----------------------------------------------
    Atom  No    Charge         Core      Valence    Rydberg      Total
 -----------------------------------------------------------------------
      C    1    0.98797      1.99971     2.98186    0.03046     5.01203
      O    2   -0.49399      1.99974     6.46084    0.03340     8.49399
      O    3   -0.49399      1.99974     6.46084    0.03340     8.49399
 =======================================================================
   * Total *    0.00000      5.99919    15.90354    0.09727    22.00000

                      1                      2                      3
                     PIU                    PIU                    SGG
 Frequencies --    673.6589               673.6589              1369.2043
 Red. masses --     12.8774                12.8774                15.9949
 Frc consts  --      3.4432                 3.4432                17.6672
 IR Inten    --     30.2975                30.2975                 0.0000
 Raman Activ --      0.0000                 0.0000                21.1051

                      4
                     SGU
 Frequencies --   2400.4731
 Red. masses --     12.8774
 Frc consts  --     43.7191
 IR Inten    --    675.7766
 Raman Activ --      0.0000

 - Thermochemistry -
 -------------------
 Temperature   298.150 Kelvin.  Pressure   1.00000 Atm.
 Atom     1 has atomic number  6 and mass  12.00000

 Molecular mass:    43.98983 amu.
 Principal axes and moments of inertia in atomic units:
                           1         2         3
     Eigenvalues --     0.00000 153.84270 153.84270
           X           -0.00000   1.00000  -0.00000
           Y            0.00000   0.00000   1.00000
           Z            1.00000   0.00000  -0.00000
 This molecule is a prolate symmetric top.
 Rotational symmetry number  2.
 Rotational temperature (Kelvin)      0.56300
 Rotational constant (GHZ):          11.731081
 Zero-point vibrational energy      30606.4 (Joules/Mol)
                                    7.31511 (Kcal/Mol)
 Vibrational temperatures:    969.24   969.24  1969.98  3453.75
          (Kelvin)

 Zero-point correction=                           0.011657 (Hartree/Particle)
 Thermal correction to Energy=                    0.014274
 Thermal correction to Enthalpy=                  0.015218
 Thermal correction to Gibbs Free Energy=        -0.009034
 Sum of electronic and zero-point Energies=           -188.651729
 Sum of electronic and thermal Energies=              -188.649113
 Sum of electronic and thermal Enthalpies=            -188.648169
 Sum of electronic and thermal Free Energies=         -188.672421

                     E (Thermal)             CV                S
                      KCal/Mol        Cal/Mol-Kelvin    Cal/Mol-Kelvin
 Total                    8.957              6.849             51.042
 Electronic               0.000              0.000              0.000
 Translational            0.889              2.981             37.270
 Rotational               0.592              1.987             13.074
 Vibrational              7.476              1.881              0.698

 Optimization completed.
    -- Stationary point found.
 Normal termination of Gaussian 16 at Fri Sep  6 10:19:30 2024.
