 Gaussian 16, Revision A.03,
 Gaussian 16:  EM64M-G16RevA.03 25-Dec-2016

 ----------------------------------------------------------------------
 #p opt=tight freq=raman pm6 guess=save pop=(hirshfeld,full,nbo) geom=c
 onnectivity polar
 ----------------------------------------------------------------------

 -----------------------------
 H2O PM6 Opt Freq - Full - NBO
 -----------------------------
 Symbolic Z-matrix:
 Charge =  0 Multiplicity = 1

 SCF Done:  E(RPM6) = -0.861466880070E-01 A.U. after    9 cycles
 SCF Done:  E(RPM6) = -0.863930485894E-01 A.U. after    7 cycles
 SCF Done:  E(RPM6) = -0.864002101054E-01 A.U. after    6 cycles
 SCF Done:  E(RPM6) = -0.864070526852E-01 A.U. after    7 cycles
 SCF Done:  E(RPM6) = -0.864070812576E-01 A.U. after    6 cycles
 Optimization completed.
    -- Stationary point found.
 Normal termination of Gaussian 16 at Fri Sep  6 10:36:08 2024.

 -------------------------------------------------------------
 #P Geom=AllCheck Guess=TCheck SCRF=Check GenChk RPM6/ZDO Freq
 -------------------------------------------------------------

 Structure from the checkpoint file:  "H2O_PM6_Opt_Freq_Full_NBO.chk"
 -----------------------------
 H2O PM6 Opt Freq - Full - NBO
 -----------------------------
 Charge =  0 Multiplicity = 1

                         Standard orientation:
 ---------------------------------------------------------------------
 Center     Atomic      Atomic             Coordinates (Angstroms)
 Number     Number       Type             X           Y           Z
 ---------------------------------------------------------------------
      1          8           0        0.000000   -0.000000    0.112201
      2          1           0        0.000000   -0.765510   -0.448806
      3          1           0        0.000000    0.765510   -0.448806
 ---------------------------------------------------------------------

 SCF Done:  E(RPM6) = -0.864070812576E-01 A.U. after    2 cycles

 The electronic state is 1-A1.
 Alpha  occ. eigenvalues --   -1.11718  -0.69758  -0.51862  -0.43746
 Alpha virt. eigenvalues --    0.14938   0.22190

 Mulliken charges:
               1
     1  O   -0.618543
     2  H    0.309271
     3  H    0.309271
 Sum of Mulliken charges =  -0.00000

 Dipole moment (field-independent basis, Debye):
    X=              0.0000    Y=              0.0000    Z=             -2.0684  Tot=              2.0684
 N-N= 1.675877618799D+01 E-N=-7.968259805310D+00  KE=-2.018044350517D+01
 Symmetry A1   KE=-1.087868096399D+01
 Symmetry A2   KE= 0.000000000000D+00
 Symmetry B1   KE=-5.178784462185D+00
 Symmetry B2   KE=-4.122978078996D+00
 StAtR1:  DoIntr=F IAtCor=3 NETot=       8 Failed=F Sum=  2.00D+00 SumC=  0.00D+00
 There are a total of       67328 grid points.
 ElSum from          density=        8.4412920604
 ElSum from atomic densities=       10.0000000420

  Exact polarizability:   0.084   0.000   4.849  -0.000   0.000   2.795
 Approx polarizability:   0.046   0.000   3.446  -0.000   0.000   1.780

 Summary of Natural Population Analysis:

                                       Natural Population
                Natural  -----------------------------------------------
    Atom  No    Charge         Core      Valence    Rydberg      Total
 -----------------------------------------------------------------------
      O    1   -0.61854      2.00000     6.61854    0.00000     8.61854
      H    2    0.30927      0.00000     0.69073    0.00000     0.69073
      H    3    0.30927      0.00000     0.69073    0.00000     0.69073
 =======================================================================
   * Total *   -0.00000      2.00000     8.00000    0.00000    10.00000

                      1                      2                      3
                     A1                     B2                     A1
 Frequencies --   1336.5668              2528.6987              2615.1208
 Red. masses --      1.1158                 1.0848                 1.0160
 Frc consts  --      1.1745                 4.0871                 4.0938
 IR Inten    --     83.3716               263.9514                27.1950
 Raman Activ --     30.9282                36.8296                55.9593

 - Thermochemistry -
 -------------------
 Temperature   298.150 Kelvin.  Pressure   1.00000 Atm.
 Atom     1 has atomic number  8 and mass  15.99491

 Molecular mass:    18.01056 amu.
 Principal axes and moments of inertia in atomic units:
                           1         2         3
     Eigenvalues --     2.01189   4.21808   6.22997
           X           -0.00000   0.00000   1.00000
           Y            1.00000   0.00000   0.00000
           Z            0.00000   1.00000   0.00000
 This molecule is an asymmetric top.
 Rotational symmetry number  2.
 Rotational temperatures (Kelvin)     43.05101    20.53397    13.90278
 Rotational constants (GHZ):         897.03743   427.85850   289.68697
 Zero-point vibrational energy      38761.3 (Joules/Mol)
                                    9.26418 (Kcal/Mol)
 Vibrational temperatures:   1923.02  3638.23  3762.58
          (Kelvin)

 Zero-point correction=                           0.014763 (Hartree/Particle)
 Thermal correction to Energy=                    0.017606
 Thermal correction to Enthalpy=                  0.018550
 Thermal correction to Gibbs Free Energy=        -0.002831
 Sum of electronic and zero-point Energies=             -0.071644
 Sum of electronic and thermal Energies=                -0.068801
 Sum of electronic and thermal Enthalpies=              -0.067857
 Sum of electronic and thermal Free Energies=           -0.089238

                     E (Thermal)             CV                S
                      KCal/Mol        Cal/Mol-Kelvin    Cal/Mol-Kelvin
 Total                   11.048              6.095             45.000
 Electronic               0.000              0.000              0.000
 Translational            0.889              2.981             34.608
 Rotational               0.889              2.981             10.368
 Vibrational              9.270              0.134              0.024

 Optimization completed.
    -- Stationary point found.
 Normal termination of Gaussian 16 at Fri Sep  6 10:36:09 2024.
