 Gaussian 16, Revision A.03,
 Gaussian 16:  EM64M-G16RevA.03 25-Dec-2016

 ----------------------------------------------------------------------
 #p opt=tight freq=raman wb97xd/aug-cc-pvtz guess=save pop=(hirshfeld,f
 ull,nbo) geom=connectivity polar
 ----------------------------------------------------------------------

 -------------------------------------------------
 H2O DFT WB97XDS aug-cc-pVTZ Opt Freq - Full - NBO
 -------------------------------------------------
 Symbolic Z-matrix:
 Charge =  0 Multiplicity = 1

 SCF Done:  E(RwB97XD) =  -76.4394419465     A.U. after    9 cycles
 SCF Done:  E(RwB97XD) =  -76.4399196132     A.U. after    8 cycles
 SCF Done:  E(RwB97XD) =  -76.4399279034     A.U. after    7 cycles
 SCF Done:  E(RwB97XD) =  -76.4399279818     A.U. after    6 cycles
 Optimization completed.
    -- Stationary point found.
 Normal termination of Gaussian 16 at Fri Sep  6 10:45:42 2024.

 ----------------------------------------------------------------------
 #P Geom=AllCheck Guess=TCheck SCRF=Check GenChk RwB97XD/Aug-CC-pVTZ Fr
 eq
 ----------------------------------------------------------------------

 Structure from the checkpoint file:  "H2O_DFT_WB97XD_apVTZ_Opt_Freq_Full_NBO.chk"
 -------------------------------------------------
 H2O DFT WB97XDS aug-cc-pVTZ Opt Freq - Full - NBO
 -------------------------------------------------
 Charge =  0 Multiplicity = 1

                         Standard orientation:
 ---------------------------------------------------------------------
 Center     Atomic      Atomic             Coordinates (Angstroms)
 Number     Number       Type             X           Y           Z
 ---------------------------------------------------------------------
      1          8           0       -0.000000   -0.000000    0.116444
      2          1           0       -0.000000   -0.760000   -0.465777
      3          1           0        0.000000    0.760000   -0.465777
 ---------------------------------------------------------------------

 SCF Done:  E(RwB97XD) =  -76.4399279818     A.U. after    1 cycles

 The electronic state is 1-A1.
 Alpha  occ. eigenvalues --  -19.25817  -1.11915  -0.62582  -0.48266  -0.40703
 Alpha virt. eigenvalues --    0.02943   0.05080   0.12722   0.15826   0.16520
 Alpha virt. eigenvalues --    0.17487   0.21664   0.24049   0.26195   0.29158
 Alpha virt. eigenvalues --    0.29715   0.36752   0.39363   0.41577   0.54986

 Mulliken charges:
               1
     1  O   -0.355641
     2  H    0.177820
     3  H    0.177820
 Sum of Mulliken charges =   0.00000

 Dipole moment (field-independent basis, Debye):
    X=              0.0000    Y=             -0.0000    Z=             -1.8590  Tot=              1.8590
 Quadrupole moment (field-independent basis, Debye-Ang):
   XX=             -7.6952   YY=             -4.3581   ZZ=             -6.3941
   XY=              0.0000   XZ=             -0.0000   YZ=              0.0000

  Exact polarizability:   9.336   0.000  10.016  -0.000   0.000   9.591
 Approx polarizability:   7.787   0.000   9.798  -0.000   0.000   9.090

 Summary of Natural Population Analysis:

                                       Natural Population
                Natural  -----------------------------------------------
    Atom  No    Charge         Core      Valence    Rydberg      Total
 -----------------------------------------------------------------------
      O    1   -0.92023      1.99985     6.90274    0.01764     8.92023
      H    2    0.46011      0.00000     0.53360    0.00628     0.53989
      H    3    0.46011      0.00000     0.53360    0.00628     0.53989
 =======================================================================
   * Total *   -0.00000      1.99985     7.96995    0.03020    10.00000

                      1                      2                      3
                     A1                     A1                     B2
 Frequencies --   1637.4621              3878.6337              3985.4671
 Red. masses --      1.0832                 1.0447                 1.0824
 Frc consts  --      1.7112                 9.2598                10.1301
 IR Inten    --     76.8720                 4.9148                63.0814
 Raman Activ --      0.7947                95.9494                24.6216

 - Thermochemistry -
 -------------------
 Temperature   298.150 Kelvin.  Pressure   1.00000 Atm.
 Atom     1 has atomic number  8 and mass  15.99491

 Molecular mass:    18.01056 amu.
 Principal axes and moments of inertia in atomic units:
                           1         2         3
     Eigenvalues --     2.16693   4.15758   6.32450
           X            0.00000  -0.00000   1.00000
           Y            1.00000  -0.00000  -0.00000
           Z            0.00000   1.00000   0.00000
 This molecule is an asymmetric top.
 Rotational symmetry number  2.
 Rotational temperatures (Kelvin)     39.97087    20.83278    13.69497
 Rotational constants (GHZ):         832.85778   434.08468   285.35692
 Zero-point vibrational energy      56832.0 (Joules/Mol)
                                   13.58317 (Kcal/Mol)
 Vibrational temperatures:   2355.94  5580.49  5734.20
          (Kelvin)

 Zero-point correction=                           0.021646 (Hartree/Particle)
 Thermal correction to Energy=                    0.024481
 Thermal correction to Enthalpy=                  0.025426
 Thermal correction to Gibbs Free Energy=         0.004018
 Sum of electronic and zero-point Energies=            -76.418282
 Sum of electronic and thermal Energies=               -76.415447
 Sum of electronic and thermal Enthalpies=             -76.414502
 Sum of electronic and thermal Free Energies=          -76.435910

                     E (Thermal)             CV                S
                      KCal/Mol        Cal/Mol-Kelvin    Cal/Mol-Kelvin
 Total                   15.362              6.008             45.057
 Electronic               0.000              0.000              0.000
 Translational            0.889              2.981             34.608
 Rotational               0.889              2.981             10.442
 Vibrational             13.585              0.046              0.007

 Optimization completed.
    -- Stationary point found.
 Normal termination of Gaussian 16 at Fri Sep  6 10:45:49 2024.
