 Gaussian 16, Revision A.03,
 Gaussian 16:  EM64M-G16RevA.03 25-Dec-2016

 ----------------------------------------------------------------------
 #p opt=tight freq=raman hf/6-311++g(2d,3p) guess=save pop=(hirshfeld,f
 ull,nbo) geom=connectivity polar
 ----------------------------------------------------------------------

 --------------------------------------------
 H2O HF 6-311++g(2d,3p) Opt Freq - Full - NBO
 --------------------------------------------
 Symbolic Z-matrix:
 Charge =  0 Multiplicity = 1

 SCF Done:  E(RHF) =  -76.0556463259     A.U. after   10 cycles
 SCF Done:  E(RHF) =  -76.0568447986     A.U. after    9 cycles
 SCF Done:  E(RHF) =  -76.0568787460     A.U. after    9 cycles
 SCF Done:  E(RHF) =  -76.0568788527     A.U. after    6 cycles
 Optimization completed.
    -- Stationary point found.
 Normal termination of Gaussian 16 at Fri Sep  6 10:38:12 2024.

 ----------------------------------------------------------------------
 #P Geom=AllCheck Guess=TCheck SCRF=Check GenChk RHF/6-311++G(2d,3p) Fr
 eq
 ----------------------------------------------------------------------

 Structure from the checkpoint file:  "H2O_HF_6311pp2d3p_Opt_Freq_Full.chk"
 --------------------------------------------
 H2O HF 6-311++g(2d,3p) Opt Freq - Full - NBO
 --------------------------------------------
 Charge =  0 Multiplicity = 1

                         Standard orientation:
 ---------------------------------------------------------------------
 Center     Atomic      Atomic             Coordinates (Angstroms)
 Number     Number       Type             X           Y           Z
 ---------------------------------------------------------------------
      1          8           0       -0.000000    0.000000    0.112832
      2          1           0       -0.000000   -0.751962   -0.451329
      3          1           0        0.000000    0.751962   -0.451329
 ---------------------------------------------------------------------

 SCF Done:  E(RHF) =  -76.0568788527     A.U. after    1 cycles

 The electronic state is 1-A1.
 Alpha  occ. eigenvalues --  -20.56359  -1.36246  -0.73274  -0.58575  -0.51096
 Alpha virt. eigenvalues --    0.04428   0.07194   0.23783   0.24264   0.25208
 Alpha virt. eigenvalues --    0.25328   0.29472   0.31427   0.47338   0.48845
 Alpha virt. eigenvalues --    0.53053   0.58673   0.68042   0.69735   0.84048

 Mulliken charges:
               1
     1  O   -0.744531
     2  H    0.372266
     3  H    0.372266
 Sum of Mulliken charges =  -0.00000

 Dipole moment (field-independent basis, Debye):
    X=              0.0000    Y=             -0.0000    Z=             -1.9961  Tot=              1.9961
 Quadrupole moment (field-independent basis, Debye-Ang):
   XX=             -7.5410   YY=             -4.1842   ZZ=             -6.2859
   XY=              0.0000   XZ=             -0.0000   YZ=              0.0000

  Exact polarizability:   7.106  -0.000   8.499  -0.000  -0.000   7.651
 Approx polarizability:   5.684  -0.000   7.301  -0.000  -0.000   6.548

 Summary of Natural Population Analysis:

                                       Natural Population
                Natural  -----------------------------------------------
    Atom  No    Charge         Core      Valence    Rydberg      Total
 -----------------------------------------------------------------------
      O    1   -0.91806      1.99983     6.90495    0.01327     8.91806
      H    2    0.45903      0.00000     0.53475    0.00622     0.54097
      H    3    0.45903      0.00000     0.53475    0.00622     0.54097
 =======================================================================
   * Total *   -0.00000      1.99983     7.97446    0.02571    10.00000

                      1                      2                      3
                     A1                     A1                     B2
 Frequencies --   1756.6100              4123.1491              4223.0111
 Red. masses --      1.0831                 1.0448                 1.0836
 Frc consts  --      1.9691                10.4648                11.3856
 IR Inten    --     89.1636                15.8516                91.4294
 Raman Activ --      2.5412                79.0654                24.4747

 - Thermochemistry -
 -------------------
 Temperature   298.150 Kelvin.  Pressure   1.00000 Atm.
 Atom     1 has atomic number  8 and mass  15.99491

 Molecular mass:    18.01056 amu.
 Principal axes and moments of inertia in atomic units:
                           1         2         3
     Eigenvalues --     2.03458   4.07010   6.10468
           X            0.00000  -0.00000   1.00000
           Y            1.00000  -0.00000  -0.00000
           Z            0.00000   1.00000   0.00000
 This molecule is an asymmetric top.
 Rotational symmetry number  2.
 Rotational temperatures (Kelvin)     42.57090    21.28056    14.18813
 Rotational constants (GHZ):         887.03357   443.41485   295.63255
 Zero-point vibrational energy      60428.0 (Joules/Mol)
                                   14.44264 (Kcal/Mol)
 Vibrational temperatures:   2527.37  5932.29  6075.97
          (Kelvin)

 Zero-point correction=                           0.023016 (Hartree/Particle)
 Thermal correction to Energy=                    0.025850
 Thermal correction to Enthalpy=                  0.026794
 Thermal correction to Gibbs Free Energy=         0.005444
 Sum of electronic and zero-point Energies=            -76.033863
 Sum of electronic and thermal Energies=               -76.031029
 Sum of electronic and thermal Enthalpies=             -76.030085
 Sum of electronic and thermal Free Energies=          -76.051435

                     E (Thermal)             CV                S
                      KCal/Mol        Cal/Mol-Kelvin    Cal/Mol-Kelvin
 Total                   16.221              5.991             44.936
 Electronic               0.000              0.000              0.000
 Translational            0.889              2.981             34.608
 Rotational               0.889              2.981             10.323
 Vibrational             14.444              0.030              0.004

 Optimization completed.
    -- Stationary point found.
 Normal termination of Gaussian 16 at Fri Sep  6 10:38:14 2024.
