 Gaussian 16, Revision A.03,
 Gaussian 16:  EM64M-G16RevA.03 25-Dec-2016

 ----------------------------------------------------------------------
 #p opt=tight freq=raman b3lyp/aug-cc-pvtz guess=save pop=(hirshfeld,fu
 ll,nbo) geom=connectivity polar
 ----------------------------------------------------------------------

 -----------------------------------------------
 H2O DFT B3LPY aug-cc-pVTZ Opt Freq - Full - NBO
 -----------------------------------------------
 Symbolic Z-matrix:
 Charge =  0 Multiplicity = 1

 SCF Done:  E(RB3LYP) =  -76.4657570783     A.U. after    8 cycles
 SCF Done:  E(RB3LYP) =  -76.4661879020     A.U. after    7 cycles
 SCF Done:  E(RB3LYP) =  -76.4661982037     A.U. after    6 cycles
 SCF Done:  E(RB3LYP) =  -76.4661982521     A.U. after    5 cycles
 Optimization completed.
    -- Stationary point found.
 Normal termination of Gaussian 16 at Fri Sep  6 10:42:58 2024.

 ----------------------------------------------------------------------
 #P Geom=AllCheck Guess=TCheck SCRF=Check GenChk RB3LYP/Aug-CC-pVTZ Fre
 q
 ----------------------------------------------------------------------

 Structure from the checkpoint file:  "H2O_DFT_B3LPY_apVTZ_Opt_Freq_Full_NBO.chk"
 -----------------------------------------------
 H2O DFT B3LPY aug-cc-pVTZ Opt Freq - Full - NBO
 -----------------------------------------------
 Charge =  0 Multiplicity = 1

                         Standard orientation:
 ---------------------------------------------------------------------
 Center     Atomic      Atomic             Coordinates (Angstroms)
 Number     Number       Type             X           Y           Z
 ---------------------------------------------------------------------
      1          8           0       -0.000000   -0.000000    0.116992
      2          1           0       -0.000000   -0.763520   -0.467967
      3          1           0        0.000000    0.763520   -0.467967
 ---------------------------------------------------------------------

 SCF Done:  E(RB3LYP) =  -76.4661982521     A.U. after    1 cycles

 The electronic state is 1-A1.
 Alpha  occ. eigenvalues --  -19.14045  -1.02109  -0.54068  -0.39897  -0.32413
 Alpha virt. eigenvalues --   -0.02506   0.01919   0.07569   0.09538   0.10263
 Alpha virt. eigenvalues --    0.11482   0.15089   0.17009   0.19139   0.21994
 Alpha virt. eigenvalues --    0.22420   0.30705   0.32998   0.34770   0.47153

 Mulliken charges:
               1
     1  O   -0.354690
     2  H    0.177345
     3  H    0.177345
 Sum of Mulliken charges =  -0.00000

 Dipole moment (field-independent basis, Debye):
    X=              0.0000    Y=             -0.0000    Z=             -1.8472  Tot=              1.8472
 Quadrupole moment (field-independent basis, Debye-Ang):
   XX=             -7.8031   YY=             -4.4687   ZZ=             -6.5071
   XY=              0.0000   XZ=             -0.0000   YZ=              0.0000

  Exact polarizability:   9.410   0.000  10.269  -0.000  -0.000   9.743
 Approx polarizability:  10.257   0.000  12.894  -0.000  -0.000  12.048

 Summary of Natural Population Analysis:

                                       Natural Population
                Natural  -----------------------------------------------
    Atom  No    Charge         Core      Valence    Rydberg      Total
 -----------------------------------------------------------------------
      O    1   -0.92250      1.99984     6.90524    0.01742     8.92250
      H    2    0.46125      0.00000     0.53232    0.00643     0.53875
      H    3    0.46125      0.00000     0.53232    0.00643     0.53875
 =======================================================================
   * Total *    0.00000      1.99984     7.96987    0.03029    10.00000

                      1                      2                      3
                     A1                     A1                     B2
 Frequencies --   1627.3736              3796.5975              3899.2340
 Red. masses --      1.0834                 1.0445                 1.0824
 Frc consts  --      1.6905                 8.8703                 9.6964
 IR Inten    --     75.7717                 4.6424                63.0388
 Raman Activ --      1.0253               101.2808                26.4861

 - Thermochemistry -
 -------------------
 Temperature   298.150 Kelvin.  Pressure   1.00000 Atm.
 Atom     1 has atomic number  8 and mass  15.99491

 Molecular mass:    18.01056 amu.
 Principal axes and moments of inertia in atomic units:
                           1         2         3
     Eigenvalues --     2.18735   4.19618   6.38352
           X           -0.00000  -0.00000   1.00000
           Y            1.00000  -0.00000   0.00000
           Z            0.00000   1.00000   0.00000
 This molecule is an asymmetric top.
 Rotational symmetry number  2.
 Rotational temperatures (Kelvin)     39.59773    20.64116    13.56836
 Rotational constants (GHZ):         825.08277   430.09197   282.71878
 Zero-point vibrational energy      55765.2 (Joules/Mol)
                                   13.32819 (Kcal/Mol)
 Vibrational temperatures:   2341.43  5462.46  5610.13
          (Kelvin)

 Zero-point correction=                           0.021240 (Hartree/Particle)
 Thermal correction to Energy=                    0.024075
 Thermal correction to Enthalpy=                  0.025019
 Thermal correction to Gibbs Free Energy=         0.003598
 Sum of electronic and zero-point Energies=            -76.444958
 Sum of electronic and thermal Energies=               -76.442123
 Sum of electronic and thermal Enthalpies=             -76.441179
 Sum of electronic and thermal Free Energies=          -76.462600

                     E (Thermal)             CV                S
                      KCal/Mol        Cal/Mol-Kelvin    Cal/Mol-Kelvin
 Total                   15.107              6.009             45.085
 Electronic               0.000              0.000              0.000
 Translational            0.889              2.981             34.608
 Rotational               0.889              2.981             10.470
 Vibrational             13.330              0.048              0.007

 Optimization completed.
    -- Stationary point found.
 Normal termination of Gaussian 16 at Fri Sep  6 10:43:04 2024.
