 Gaussian 16, Revision A.03,
 Gaussian 16:  EM64M-G16RevA.03 25-Dec-2016

 ----------------------------------------------------------------------
 #p opt=tight freq=raman ub3lyp/6-311++g(2d,3p) guess=save pop=(hirshfe
 ld,full,nbo) geom=connectivity polar
 ----------------------------------------------------------------------

 ----------------------------------------------------
 H2O DFT uB3LPY 6-311++g(2d,3p) Opt Freq - Full - NBO
 ----------------------------------------------------
 Symbolic Z-matrix:
 Charge =  0 Multiplicity = 1

 SCF Done:  E(UB3LYP) =  -76.4618163169     A.U. after    8 cycles
 SCF Done:  E(UB3LYP) =  -76.4622674529     A.U. after    7 cycles
 SCF Done:  E(UB3LYP) =  -76.4622772251     A.U. after    6 cycles
 SCF Done:  E(UB3LYP) =  -76.4622772865     A.U. after    5 cycles
 Optimization completed.
    -- Stationary point found.
 Normal termination of Gaussian 16 at Fri Sep  6 10:40:19 2024.

 ----------------------------------------------------------------------
 #P Geom=AllCheck Guess=TCheck SCRF=Check GenChk UB3LYP/6-311++G(2d,3p)
  Freq
 ----------------------------------------------------------------------

 Structure from the checkpoint file:  "H2O_DFT_uB3LPY_6311pp2d3p_Opt_Freq_Full.chk"
 ----------------------------------------------------
 H2O DFT uB3LPY 6-311++g(2d,3p) Opt Freq - Full - NBO
 ----------------------------------------------------
 Charge =  0 Multiplicity = 1

                         Standard orientation:
 ---------------------------------------------------------------------
 Center     Atomic      Atomic             Coordinates (Angstroms)
 Number     Number       Type             X           Y           Z
 ---------------------------------------------------------------------
      1          8           0        0.000000   -0.000000    0.117001
      2          1           0       -0.000000   -0.762665   -0.468002
      3          1           0        0.000000    0.762665   -0.468002
 ---------------------------------------------------------------------

 SCF Done:  E(UB3LYP) =  -76.4622772865     A.U. after    1 cycles

 The electronic state is 1-A1.
 Alpha  occ. eigenvalues --  -19.13420  -1.02204  -0.54219  -0.39948  -0.32347
 Alpha virt. eigenvalues --   -0.02192   0.02958   0.13952   0.15052   0.15138
 Alpha virt. eigenvalues --    0.15216   0.20777   0.21626   0.33587   0.35378
 Alpha virt. eigenvalues --    0.39434   0.44326   0.53078   0.55082   0.67288

  Beta  occ. eigenvalues --  -19.13420  -1.02204  -0.54219  -0.39948  -0.32347
  Beta virt. eigenvalues --   -0.02192   0.02958   0.13952   0.15052   0.15138
  Beta virt. eigenvalues --    0.15216   0.20777   0.21626   0.33587   0.35378
  Beta virt. eigenvalues --    0.39434   0.44326   0.53078   0.55082   0.67288

 Mulliken charges and spin densities:
               1          2
     1  O   -0.662321  -0.000000
     2  H    0.331160   0.000000
     3  H    0.331160   0.000000
 Sum of Mulliken charges =  -0.00000   0.00000

 Dipole moment (field-independent basis, Debye):
    X=              0.0000    Y=             -0.0000    Z=             -1.9142  Tot=              1.9142
 Quadrupole moment (field-independent basis, Debye-Ang):
   XX=             -7.7857   YY=             -4.4338   ZZ=             -6.4850
   XY=              0.0000   XZ=             -0.0000   YZ=              0.0000

  Exact polarizability:   8.704  -0.000   9.706  -0.000   0.000   9.017
 Approx polarizability:   9.431   0.000  12.266  -0.000   0.000  11.138

 Summary of Natural Population Analysis:

                                       Natural Population
                Natural  -----------------------------------------------
    Atom  No    Charge         Core      Valence    Rydberg      Total
 -----------------------------------------------------------------------
      O    1   -0.45979      0.99991     3.45279    0.00709     4.45979
      H    2    0.22989      0.00000     0.26653    0.00357     0.27011
      H    3    0.22989      0.00000     0.26653    0.00357     0.27011
 =======================================================================
   * Total *   -0.00000      0.99991     3.98585    0.01424     5.00000

                      1                      2                      3
                     A1                     A1                     B2
 Frequencies --   1636.9263              3801.1079              3902.6627
 Red. masses --      1.0834                 1.0445                 1.0824
 Frc consts  --      1.7103                 8.8918                 9.7129
 IR Inten    --     68.4864                 4.8559                60.9557
 Raman Activ --      3.2882                91.1751                26.8398

 - Thermochemistry -
 -------------------
 Temperature   298.150 Kelvin.  Pressure   1.00000 Atm.
 Atom     1 has atomic number  8 and mass  15.99491

 Molecular mass:    18.01056 amu.
 Principal axes and moments of inertia in atomic units:
                           1         2         3
     Eigenvalues --     2.18768   4.18679   6.37446
           X            0.00000  -0.00000   1.00000
           Y            1.00000  -0.00000  -0.00000
           Z            0.00000   1.00000   0.00000
 This molecule is an asymmetric top.
 Rotational symmetry number  2.
 Rotational temperatures (Kelvin)     39.59175    20.68744    13.58764
 Rotational constants (GHZ):         824.95825   431.05620   283.12044
 Zero-point vibrational energy      55869.8 (Joules/Mol)
                                   13.35320 (Kcal/Mol)
 Vibrational temperatures:   2355.17  5468.95  5615.06
          (Kelvin)

 Zero-point correction=                           0.021280 (Hartree/Particle)
 Thermal correction to Energy=                    0.024115
 Thermal correction to Enthalpy=                  0.025059
 Thermal correction to Gibbs Free Energy=         0.003640
 Sum of electronic and zero-point Energies=            -76.440998
 Sum of electronic and thermal Energies=               -76.438162
 Sum of electronic and thermal Enthalpies=             -76.437218
 Sum of electronic and thermal Free Energies=          -76.458638

                     E (Thermal)             CV                S
                      KCal/Mol        Cal/Mol-Kelvin    Cal/Mol-Kelvin
 Total                   15.132              6.008             45.081
 Electronic               0.000              0.000              0.000
 Translational            0.889              2.981             34.608
 Rotational               0.889              2.981             10.467
 Vibrational             13.355              0.046              0.007

 Optimization completed.
    -- Stationary point found.
 Normal termination of Gaussian 16 at Fri Sep  6 10:40:27 2024.
