 Gaussian 16, Revision A.03,
 Gaussian 16:  EM64M-G16RevA.03 25-Dec-2016

 ----------------------------------------------------------------------
 #p opt freq=raman wb97xd/aug-cc-pvtz guess=save pop=(hirshfeld,full) g
 eom=connectivity polar
 ----------------------------------------------------------------------

 -----------------------------------
 N2 Opt Freq HF 6-311++g(2d,3p) Full
 -----------------------------------
 Symbolic Z-matrix:
 Charge =  0 Multiplicity = 1

 SCF Done:  E(RwB97XD) =  -109.529607777     A.U. after    9 cycles
 SCF Done:  E(RwB97XD) =  -109.529649480     A.U. after    7 cycles
 SCF Done:  E(RwB97XD) =  -109.529650137     A.U. after    7 cycles
 Optimization completed.
    -- Stationary point found.
 Normal termination of Gaussian 16 at Fri Sep  6 09:53:26 2024.

 ----------------------------------------------------------------------
 #P Geom=AllCheck Guess=TCheck SCRF=Check GenChk RwB97XD/Aug-CC-pVTZ Fr
 eq
 ----------------------------------------------------------------------

 Structure from the checkpoint file:  "N2_DFT_WB97XD_apVTZ_Opt_Freq_Full.chk"
 -----------------------------------
 N2 Opt Freq HF 6-311++g(2d,3p) Full
 -----------------------------------
 Charge =  0 Multiplicity = 1

                         Standard orientation:
 ---------------------------------------------------------------------
 Center     Atomic      Atomic             Coordinates (Angstroms)
 Number     Number       Type             X           Y           Z
 ---------------------------------------------------------------------
      1          7           0        0.000000    0.000000    0.544091
      2          7           0        0.000000    0.000000   -0.544091
 ---------------------------------------------------------------------

 SCF Done:  E(RwB97XD) =  -109.529650137     A.U. after    1 cycles

 The electronic state is 1-SGG.
 Alpha  occ. eigenvalues --  -14.53962 -14.53761  -1.23510  -0.64733  -0.55954
 Alpha  occ. eigenvalues --   -0.55954  -0.52398
 Alpha virt. eigenvalues --    0.05186   0.05186   0.08722   0.11735   0.12577
 Alpha virt. eigenvalues --    0.12577   0.16061   0.17459   0.17459   0.27574
 Alpha virt. eigenvalues --    0.38272   0.38272   0.44610   0.50357   0.54176

 Mulliken charges:
               1
     1  N   -0.000000
     2  N   -0.000000
 Sum of Mulliken charges =  -0.00000

 Dipole moment (field-independent basis, Debye):
    X=             -0.0000    Y=              0.0000    Z=              0.0000  Tot=              0.0000
 Quadrupole moment (field-independent basis, Debye-Ang):
   XX=            -10.2166   YY=            -10.2166   ZZ=            -11.6654
   XY=              0.0000   XZ=              0.0000   YZ=              0.0000

  Exact polarizability:  10.283  -0.000  10.283  -0.000   0.000  14.961
 Approx polarizability:  10.544  -0.000  10.544  -0.000  -0.000  20.076

                      1
                     SGG
 Frequencies --   2489.6987
 Red. masses --     14.0031
 Frc consts  --     51.1408
 IR Inten    --      0.0000
 Raman Activ --     24.3372

 - Thermochemistry -
 -------------------
 Temperature   298.150 Kelvin.  Pressure   1.00000 Atm.
 Atom     1 has atomic number  7 and mass  14.00307

 Molecular mass:    28.00615 amu.
 Principal axes and moments of inertia in atomic units:
                           1         2         3
     Eigenvalues --     0.00000  29.60701  29.60701
           X           -0.00000   1.00000  -0.00000
           Y            0.00000   0.00000   1.00000
           Z            1.00000   0.00000  -0.00000
 This molecule is a prolate symmetric top.
 Rotational symmetry number  2.
 Rotational temperature (Kelvin)      2.92545
 Rotational constant (GHZ):          60.956544
 Zero-point vibrational energy      14891.7 (Joules/Mol)
                                    3.55920 (Kcal/Mol)
 Vibrational temperatures:   3582.12
          (Kelvin)

 Zero-point correction=                           0.005672 (Hartree/Particle)
 Thermal correction to Energy=                    0.008032
 Thermal correction to Enthalpy=                  0.008977
 Thermal correction to Gibbs Free Energy=        -0.012748
 Sum of electronic and zero-point Energies=           -109.523978
 Sum of electronic and thermal Energies=              -109.521618
 Sum of electronic and thermal Enthalpies=            -109.520673
 Sum of electronic and thermal Free Energies=         -109.542398

                     E (Thermal)             CV                S
                      KCal/Mol        Cal/Mol-Kelvin    Cal/Mol-Kelvin
 Total                    5.040              4.970             45.723
 Electronic               0.000              0.000              0.000
 Translational            0.889              2.981             35.924
 Rotational               0.592              1.987              9.799
 Vibrational              3.559              0.002              0.000

 Optimization completed.
    -- Stationary point found.
 Normal termination of Gaussian 16 at Fri Sep  6 09:53:41 2024.
