 Gaussian 16, Revision A.03,
 Gaussian 16:  EM64M-G16RevA.03 25-Dec-2016

 ----------------------------------------------------------------------
 #p opt freq=raman b3lyp/6-311++g(2d,3p) guess=save pop=(hirshfeld,full
 ) geom=connectivity polar
 ----------------------------------------------------------------------

 -----------------------------------
 N2 Opt Freq HF 6-311++g(2d,3p) Full
 -----------------------------------
 Symbolic Z-matrix:
 Charge =  0 Multiplicity = 1

 SCF Done:  E(RB3LYP) =  -109.563480098     A.U. after    8 cycles
 SCF Done:  E(RB3LYP) =  -109.563480722     A.U. after    5 cycles
 Optimization completed.
    -- Stationary point found.
 Normal termination of Gaussian 16 at Fri Sep  6 09:50:26 2024.

 ----------------------------------------------------------------------
 #P Geom=AllCheck Guess=TCheck SCRF=Check GenChk RB3LYP/6-311++G(2d,3p)
  Freq
 ----------------------------------------------------------------------

 Structure from the checkpoint file:  "N2_DFT_B3LPY_6311pp2d3p_Opt_Freq_Full.chk"
 -----------------------------------
 N2 Opt Freq HF 6-311++g(2d,3p) Full
 -----------------------------------
 Charge =  0 Multiplicity = 1

                         Standard orientation:
 ---------------------------------------------------------------------
 Center     Atomic      Atomic             Coordinates (Angstroms)
 Number     Number       Type             X           Y           Z
 ---------------------------------------------------------------------
      1          7           0        0.000000    0.000000    0.545798
      2          7           0        0.000000    0.000000   -0.545798
 ---------------------------------------------------------------------

 SCF Done:  E(RB3LYP) =  -109.563480722     A.U. after    1 cycles

 The electronic state is 1-SGG.
 Alpha  occ. eigenvalues --  -14.42181 -14.41998  -1.14031  -0.55970  -0.47673
 Alpha  occ. eigenvalues --   -0.47673  -0.44174
 Alpha virt. eigenvalues --   -0.03516  -0.03516   0.06314   0.07836   0.09117
 Alpha virt. eigenvalues --    0.09117   0.14142   0.17225   0.17225   0.25914
 Alpha virt. eigenvalues --    0.49439   0.66231   0.69685   0.69685   0.80094

 Mulliken charges:
               1
     1  N   -0.000000
     2  N    0.000000
 Sum of Mulliken charges =  -0.00000

 Dipole moment (field-independent basis, Debye):
    X=              0.0000    Y=              0.0000    Z=              0.0000  Tot=              0.0000
 Quadrupole moment (field-independent basis, Debye-Ang):
   XX=            -10.3339   YY=            -10.3339   ZZ=            -11.8112
   XY=              0.0000   XZ=              0.0000   YZ=             -0.0000

  Exact polarizability:   8.839   0.000   8.839   0.000  -0.000  15.000
 Approx polarizability:  11.701  -0.000  11.701  -0.000  -0.000  27.406

                      1
                     SGG
 Frequencies --   2434.1984
 Red. masses --     14.0031
 Frc consts  --     48.8861
 IR Inten    --      0.0000
 Raman Activ --     19.8673

 - Thermochemistry -
 -------------------
 Temperature   298.150 Kelvin.  Pressure   1.00000 Atm.
 Atom     1 has atomic number  7 and mass  14.00307

 Molecular mass:    28.00615 amu.
 Principal axes and moments of inertia in atomic units:
                           1         2         3
     Eigenvalues --     0.00000  29.79301  29.79301
           X           -0.00000   1.00000  -0.00000
           Y            0.00000   0.00000   1.00000
           Z            1.00000   0.00000  -0.00000
 This molecule is a prolate symmetric top.
 Rotational symmetry number  2.
 Rotational temperature (Kelvin)      2.90719
 Rotational constant (GHZ):          60.576003
 Zero-point vibrational energy      14559.7 (Joules/Mol)
                                    3.47986 (Kcal/Mol)
 Vibrational temperatures:   3502.27
          (Kelvin)

 Zero-point correction=                           0.005546 (Hartree/Particle)
 Thermal correction to Energy=                    0.007906
 Thermal correction to Enthalpy=                  0.008850
 Thermal correction to Gibbs Free Energy=        -0.012880
 Sum of electronic and zero-point Energies=           -109.557935
 Sum of electronic and thermal Energies=              -109.555575
 Sum of electronic and thermal Enthalpies=            -109.554630
 Sum of electronic and thermal Free Energies=         -109.576361

                     E (Thermal)             CV                S
                      KCal/Mol        Cal/Mol-Kelvin    Cal/Mol-Kelvin
 Total                    4.961              4.970             45.736
 Electronic               0.000              0.000              0.000
 Translational            0.889              2.981             35.924
 Rotational               0.592              1.987              9.811
 Vibrational              3.480              0.002              0.000

 Optimization completed.
    -- Stationary point found.
 Normal termination of Gaussian 16 at Fri Sep  6 09:50:29 2024.
