 Gaussian 16, Revision A.03,
 Gaussian 16:  EM64M-G16RevA.03 25-Dec-2016

 ----------------------------------------------------------------------
 #p opt=tight freq=raman ub3lyp/6-311++g(2d,3p) guess=save pop=(hirshfe
 ld,full,nbo) geom=connectivity polar
 ----------------------------------------------------------------------

 ---------------------------------------------------
 N2 DFT uB3LPY 6-311++g(2d,3p) Opt Freq - Full - NBO
 ---------------------------------------------------
 Symbolic Z-matrix:
 Charge =  0 Multiplicity = 1

 SCF Done:  E(UB3LYP) =  -109.563480098     A.U. after    8 cycles
 SCF Done:  E(UB3LYP) =  -109.563480722     A.U. after    5 cycles
 SCF Done:  E(UB3LYP) =  -109.563480737     A.U. after    5 cycles
 Optimization completed.
    -- Stationary point found.
 Normal termination of Gaussian 16 at Fri Sep  6 10:29:21 2024.

 ----------------------------------------------------------------------
 #P Geom=AllCheck Guess=TCheck SCRF=Check GenChk UB3LYP/6-311++G(2d,3p)
  Freq
 ----------------------------------------------------------------------

 Structure from the checkpoint file:  "N2_DFT_uB3LPY_6311pp2d3p_Opt_Freq_Full_NBO.chk"
 ---------------------------------------------------
 N2 DFT uB3LPY 6-311++g(2d,3p) Opt Freq - Full - NBO
 ---------------------------------------------------
 Charge =  0 Multiplicity = 1

                         Standard orientation:
 ---------------------------------------------------------------------
 Center     Atomic      Atomic             Coordinates (Angstroms)
 Number     Number       Type             X           Y           Z
 ---------------------------------------------------------------------
      1          7           0        0.000000    0.000000    0.545761
      2          7           0        0.000000    0.000000   -0.545761
 ---------------------------------------------------------------------

 SCF Done:  E(UB3LYP) =  -109.563480737     A.U. after    1 cycles

 The electronic state is 1-SGG.
 Alpha  occ. eigenvalues --  -14.42179 -14.41995  -1.14036  -0.55968  -0.47675
 Alpha  occ. eigenvalues --   -0.47675  -0.44175
 Alpha virt. eigenvalues --   -0.03513  -0.03513   0.06314   0.07837   0.09117
 Alpha virt. eigenvalues --    0.09117   0.14142   0.17226   0.17226   0.25914
 Alpha virt. eigenvalues --    0.49444   0.66229   0.69684   0.69684   0.80095

  Beta  occ. eigenvalues --  -14.42179 -14.41995  -1.14036  -0.55968  -0.47675
  Beta  occ. eigenvalues --   -0.47675  -0.44175
  Beta virt. eigenvalues --   -0.03513  -0.03513   0.06314   0.07837   0.09117
  Beta virt. eigenvalues --    0.09117   0.14142   0.17226   0.17226   0.25914
  Beta virt. eigenvalues --    0.49444   0.66229   0.69684   0.69684   0.80095

 Mulliken charges and spin densities:
               1          2
     1  N    0.000000   0.000000
     2  N    0.000000   0.000000
 Sum of Mulliken charges =   0.00000   0.00000

 Dipole moment (field-independent basis, Debye):
    X=              0.0000    Y=             -0.0000    Z=              0.0000  Tot=              0.0000
 Quadrupole moment (field-independent basis, Debye-Ang):
   XX=            -10.3337   YY=            -10.3337   ZZ=            -11.8112
   XY=              0.0000   XZ=              0.0000   YZ=             -0.0000

  Exact polarizability:   8.839   0.000   8.839   0.000   0.000  14.999
 Approx polarizability:  11.700  -0.000  11.700  -0.000  -0.000  27.400

 Summary of Natural Population Analysis:

                                       Natural Population
                Natural  -----------------------------------------------
    Atom  No    Charge         Core      Valence    Rydberg      Total
 -----------------------------------------------------------------------
      N    1    0.00000      0.99985     2.47417    0.02598     3.50000
      N    2    0.00000      0.99985     2.47417    0.02598     3.50000
 =======================================================================
   * Total *    0.00000      1.99969     4.94834    0.05196     7.00000

                      1
                     SGG
 Frequencies --   2434.8314
 Red. masses --     14.0031
 Frc consts  --     48.9115
 IR Inten    --      0.0000
 Raman Activ --     19.8646

 - Thermochemistry -
 -------------------
 Temperature   298.150 Kelvin.  Pressure   1.00000 Atm.
 Atom     1 has atomic number  7 and mass  14.00307

 Molecular mass:    28.00615 amu.
 Principal axes and moments of inertia in atomic units:
                           1         2         3
     Eigenvalues --    -0.00000  29.78903  29.78903
           X           -0.00000   1.00000  -0.00000
           Y            0.00000   0.00000   1.00000
           Z            1.00000   0.00000  -0.00000
 This molecule is a prolate symmetric top.
 Rotational symmetry number  2.
 Rotational temperature (Kelvin)      2.90758
 Rotational constant (GHZ):          60.584092
 Zero-point vibrational energy      14563.5 (Joules/Mol)
                                    3.48077 (Kcal/Mol)
 Vibrational temperatures:   3503.18
          (Kelvin)

 Zero-point correction=                           0.005547 (Hartree/Particle)
 Thermal correction to Energy=                    0.007908
 Thermal correction to Enthalpy=                  0.008852
 Thermal correction to Gibbs Free Energy=        -0.012879
 Sum of electronic and zero-point Energies=           -109.557934
 Sum of electronic and thermal Energies=              -109.555573
 Sum of electronic and thermal Enthalpies=            -109.554629
 Sum of electronic and thermal Free Energies=         -109.576359

                     E (Thermal)             CV                S
                      KCal/Mol        Cal/Mol-Kelvin    Cal/Mol-Kelvin
 Total                    4.962              4.970             45.735
 Electronic               0.000              0.000              0.000
 Translational            0.889              2.981             35.924
 Rotational               0.592              1.987              9.811
 Vibrational              3.481              0.002              0.000

 Optimization completed.
    -- Stationary point found.
 Normal termination of Gaussian 16 at Fri Sep  6 10:29:26 2024.
