 Gaussian 16, Revision A.03,
 Gaussian 16:  EM64M-G16RevA.03 25-Dec-2016

 ----------------------------------------------------------------------
 #p opt freq=raman b3lyp/aug-cc-pvtz guess=save pop=(hirshfeld,full) ge
 om=connectivity polar
 ----------------------------------------------------------------------

 --------------------------------------
 N2 Opt Freq DFT B3LPY aug-cc-pVTX Full
 --------------------------------------
 Symbolic Z-matrix:
 Charge =  0 Multiplicity = 1

 SCF Done:  E(RB3LYP) =  -109.570583419     A.U. after    7 cycles
 SCF Done:  E(RB3LYP) =  -109.570585358     A.U. after    6 cycles
 SCF Done:  E(RB3LYP) =  -109.570585399     A.U. after    5 cycles
 Optimization completed.
    -- Stationary point found.
 Normal termination of Gaussian 16 at Fri Sep  6 09:54:38 2024.

 ----------------------------------------------------------------------
 #P Geom=AllCheck Guess=TCheck SCRF=Check GenChk RB3LYP/Aug-CC-pVTZ Fre
 q
 ----------------------------------------------------------------------

 Structure from the checkpoint file:  "N2_DFT_B3LPY_apVTZ_Opt_Freq_Full.chk"
 --------------------------------------
 N2 Opt Freq DFT B3LPY aug-cc-pVTX Full
 --------------------------------------
 Charge =  0 Multiplicity = 1

                         Standard orientation:
 ---------------------------------------------------------------------
 Center     Atomic      Atomic             Coordinates (Angstroms)
 Number     Number       Type             X           Y           Z
 ---------------------------------------------------------------------
      1          7           0        0.000000    0.000000    0.545582
      2          7           0        0.000000    0.000000   -0.545582
 ---------------------------------------------------------------------

 SCF Done:  E(RB3LYP) =  -109.570585399     A.U. after    1 cycles

 The electronic state is 1-SGG.
 Alpha  occ. eigenvalues --  -14.42631 -14.42441  -1.13744  -0.55917  -0.47621
 Alpha  occ. eigenvalues --   -0.47621  -0.44019
 Alpha virt. eigenvalues --   -0.03442  -0.03442   0.04591   0.04859   0.06614
 Alpha virt. eigenvalues --    0.06614   0.10639   0.12819   0.12819   0.21531
 Alpha virt. eigenvalues --    0.29144   0.29144   0.37087   0.41163   0.45087

 Mulliken charges:
               1
     1  N    0.000000
     2  N    0.000000
 Sum of Mulliken charges =   0.00000

 Dipole moment (field-independent basis, Debye):
    X=             -0.0000    Y=             -0.0000    Z=              0.0000  Tot=              0.0000
 Quadrupole moment (field-independent basis, Debye-Ang):
   XX=            -10.3211   YY=            -10.3211   ZZ=            -11.8232
   XY=              0.0000   XZ=              0.0000   YZ=              0.0000

  Exact polarizability:  10.324   0.000  10.324  -0.000  -0.000  15.075
 Approx polarizability:  13.480  -0.000  13.480  -0.000  -0.000  27.433

                      1
                     SGG
 Frequencies --   2447.3248
 Red. masses --     14.0031
 Frc consts  --     49.4148
 IR Inten    --      0.0000
 Raman Activ --     23.9818

 - Thermochemistry -
 -------------------
 Temperature   298.150 Kelvin.  Pressure   1.00000 Atm.
 Atom     1 has atomic number  7 and mass  14.00307

 Molecular mass:    28.00615 amu.
 Principal axes and moments of inertia in atomic units:
                           1         2         3
     Eigenvalues --    -0.00000  29.76943  29.76943
           X           -0.00000   1.00000  -0.00000
           Y            0.00000   0.00000   1.00000
           Z            1.00000   0.00000  -0.00000
 This molecule is a prolate symmetric top.
 Rotational symmetry number  2.
 Rotational temperature (Kelvin)      2.90949
 Rotational constant (GHZ):          60.623977
 Zero-point vibrational energy      14638.3 (Joules/Mol)
                                    3.49863 (Kcal/Mol)
 Vibrational temperatures:   3521.15
          (Kelvin)

 Zero-point correction=                           0.005575 (Hartree/Particle)
 Thermal correction to Energy=                    0.007936
 Thermal correction to Enthalpy=                  0.008880
 Thermal correction to Gibbs Free Energy=        -0.012850
 Sum of electronic and zero-point Energies=           -109.565010
 Sum of electronic and thermal Energies=              -109.562649
 Sum of electronic and thermal Enthalpies=            -109.561705
 Sum of electronic and thermal Free Energies=         -109.583435

                     E (Thermal)             CV                S
                      KCal/Mol        Cal/Mol-Kelvin    Cal/Mol-Kelvin
 Total                    4.980              4.970             45.734
 Electronic               0.000              0.000              0.000
 Translational            0.889              2.981             35.924
 Rotational               0.592              1.987              9.810
 Vibrational              3.499              0.002              0.000

 Optimization completed.
    -- Stationary point found.
 Normal termination of Gaussian 16 at Fri Sep  6 09:54:49 2024.
