 Gaussian 16, Revision A.03,
 Gaussian 16:  EM64M-G16RevA.03 25-Dec-2016

 ----------------------------------------------------------------------
 #p opt freq=raman wb97xd/6-311++g(2d,3p) guess=save pop=(hirshfeld,ful
 l) geom=connectivity polar
 ----------------------------------------------------------------------

 -----------------------------------
 N2 Opt Freq HF 6-311++g(2d,3p) Full
 -----------------------------------
 Symbolic Z-matrix:
 Charge =  0 Multiplicity = 1

 SCF Done:  E(RwB97XD) =  -109.521845109     A.U. after   11 cycles
 SCF Done:  E(RwB97XD) =  -109.521877519     A.U. after    7 cycles
 SCF Done:  E(RwB97XD) =  -109.521878098     A.U. after    6 cycles
 Optimization completed.
    -- Stationary point found.
 Normal termination of Gaussian 16 at Fri Sep  6 09:52:12 2024.

 ----------------------------------------------------------------------
 #P Geom=AllCheck Guess=TCheck SCRF=Check GenChk RwB97XD/6-311++G(2d,3p
 ) Freq
 ----------------------------------------------------------------------

 Structure from the checkpoint file:  "N2_DFT_WB97XD_6311pp2d3p_Opt_Freq_Full.chk"
 -----------------------------------
 N2 Opt Freq HF 6-311++g(2d,3p) Full
 -----------------------------------
 Charge =  0 Multiplicity = 1

                         Standard orientation:
 ---------------------------------------------------------------------
 Center     Atomic      Atomic             Coordinates (Angstroms)
 Number     Number       Type             X           Y           Z
 ---------------------------------------------------------------------
      1          7           0        0.000000    0.000000    0.544308
      2          7           0        0.000000    0.000000   -0.544308
 ---------------------------------------------------------------------

 SCF Done:  E(RwB97XD) =  -109.521878098     A.U. after    1 cycles

 The electronic state is 1-SGG.
 Alpha  occ. eigenvalues --  -14.53727 -14.53530  -1.23920  -0.64882  -0.56116
 Alpha  occ. eigenvalues --   -0.56116  -0.52674
 Alpha virt. eigenvalues --    0.05072   0.05072   0.13781   0.13985   0.16053
 Alpha virt. eigenvalues --    0.16053   0.21180   0.23501   0.23501   0.32635
 Alpha virt. eigenvalues --    0.57937   0.74260   0.77634   0.77634   0.88877

 Mulliken charges:
               1
     1  N    0.000000
     2  N    0.000000
 Sum of Mulliken charges =   0.00000

 Dipole moment (field-independent basis, Debye):
    X=              0.0000    Y=             -0.0000    Z=              0.0000  Tot=              0.0000
 Quadrupole moment (field-independent basis, Debye-Ang):
   XX=            -10.2463   YY=            -10.2463   ZZ=            -11.6842
   XY=              0.0000   XZ=              0.0000   YZ=             -0.0000

  Exact polarizability:   8.718  -0.000   8.718  -0.000  -0.000  14.983
 Approx polarizability:   9.307  -0.000   9.307  -0.000  -0.000  20.107

                      1
                     SGG
 Frequencies --   2476.7398
 Red. masses --     14.0031
 Frc consts  --     50.6098
 IR Inten    --      0.0000
 Raman Activ --     20.2271

 - Thermochemistry -
 -------------------
 Temperature   298.150 Kelvin.  Pressure   1.00000 Atm.
 Atom     1 has atomic number  7 and mass  14.00307

 Molecular mass:    28.00615 amu.
 Principal axes and moments of inertia in atomic units:
                           1         2         3
     Eigenvalues --     0.00000  29.63056  29.63056
           X           -0.00000   1.00000  -0.00000
           Y            0.00000   0.00000   1.00000
           Z            1.00000   0.00000  -0.00000
 This molecule is a prolate symmetric top.
 Rotational symmetry number  2.
 Rotational temperature (Kelvin)      2.92313
 Rotational constant (GHZ):          60.908099
 Zero-point vibrational energy      14814.2 (Joules/Mol)
                                    3.54068 (Kcal/Mol)
 Vibrational temperatures:   3563.48
          (Kelvin)

 Zero-point correction=                           0.005642 (Hartree/Particle)
 Thermal correction to Energy=                    0.008003
 Thermal correction to Enthalpy=                  0.008947
 Thermal correction to Gibbs Free Energy=        -0.012778
 Sum of electronic and zero-point Energies=           -109.516236
 Sum of electronic and thermal Energies=              -109.513875
 Sum of electronic and thermal Enthalpies=            -109.512931
 Sum of electronic and thermal Free Energies=         -109.534656

                     E (Thermal)             CV                S
                      KCal/Mol        Cal/Mol-Kelvin    Cal/Mol-Kelvin
 Total                    5.022              4.970             45.725
 Electronic               0.000              0.000              0.000
 Translational            0.889              2.981             35.924
 Rotational               0.592              1.987              9.800
 Vibrational              3.541              0.002              0.000

 Optimization completed.
    -- Stationary point found.
 Normal termination of Gaussian 16 at Fri Sep  6 09:52:16 2024.
