 Gaussian 16, Revision A.03,
 Gaussian 16:  EM64M-G16RevA.03 25-Dec-2016

 ----------------------------------------------------------------------
 #p opt freq=raman hf/6-311++g(2d,3p) guess=save pop=(hirshfeld,full) g
 eom=connectivity polar
 ----------------------------------------------------------------------

 -----------------------------------
 N2 Opt Freq HF 6-311++g(2d,3p) Full
 -----------------------------------
 Symbolic Z-matrix:
 Charge =  0 Multiplicity = 1

 SCF Done:  E(RHF) =  -108.978065169     A.U. after    9 cycles
 SCF Done:  E(RHF) =  -108.980197387     A.U. after    8 cycles
 SCF Done:  E(RHF) =  -108.980199329     A.U. after    6 cycles
 Optimization completed.
    -- Stationary point found.
 Normal termination of Gaussian 16 at Fri Sep  6 09:49:27 2024.

 ----------------------------------------------------------------------
 #P Geom=AllCheck Guess=TCheck SCRF=Check GenChk RHF/6-311++G(2d,3p) Fr
 eq
 ----------------------------------------------------------------------

 Structure from the checkpoint file:  "N2_HF_6311pp2d3p_Opt_Freq_Full.chk"
 -----------------------------------
 N2 Opt Freq HF 6-311++g(2d,3p) Full
 -----------------------------------
 Charge =  0 Multiplicity = 1

                         Standard orientation:
 ---------------------------------------------------------------------
 Center     Atomic      Atomic             Coordinates (Angstroms)
 Number     Number       Type             X           Y           Z
 ---------------------------------------------------------------------
      1          7           0        0.000000    0.000000    0.533297
      2          7           0        0.000000    0.000000   -0.533297
 ---------------------------------------------------------------------

 SCF Done:  E(RHF) =  -108.980199329     A.U. after    1 cycles

 The electronic state is 1-SGG.
 Alpha  occ. eigenvalues --  -15.67544 -15.67115  -1.49881  -0.77012  -0.63950
 Alpha  occ. eigenvalues --   -0.62874  -0.62874
 Alpha virt. eigenvalues --    0.13893   0.13910   0.13910   0.14343   0.16431
 Alpha virt. eigenvalues --    0.16431   0.22140   0.27816   0.27816   0.33193
 Alpha virt. eigenvalues --    0.66453   0.82809   0.88577   0.88577   1.02057

 Mulliken charges:
               1
     1  N   -0.000000
     2  N    0.000000
 Sum of Mulliken charges =  -0.00000

 Dipole moment (field-independent basis, Debye):
    X=              0.0000    Y=             -0.0000    Z=             -0.0000  Tot=              0.0000
 Quadrupole moment (field-independent basis, Debye-Ang):
   XX=            -10.2997   YY=            -10.2997   ZZ=            -11.6398
   XY=              0.0000   XZ=             -0.0000   YZ=             -0.0000

  Exact polarizability:   8.114   0.000   8.114   0.000   0.000  14.242
 Approx polarizability:   7.773  -0.000   7.773  -0.000  -0.000  14.866

                      1
                     SGG
 Frequencies --   2719.6197
 Red. masses --     14.0031
 Frc consts  --     61.0225
 IR Inten    --      0.0000
 Raman Activ --     23.6312

 - Thermochemistry -
 -------------------
 Temperature   298.150 Kelvin.  Pressure   1.00000 Atm.
 Atom     1 has atomic number  7 and mass  14.00307

 Molecular mass:    28.00615 amu.
 Principal axes and moments of inertia in atomic units:
                           1         2         3
     Eigenvalues --     0.00000  28.44394  28.44394
           X           -0.00000   1.00000  -0.00000
           Y            0.00000   0.00000   1.00000
           Z            1.00000   0.00000  -0.00000
 This molecule is a prolate symmetric top.
 Rotational symmetry number  2.
 Rotational temperature (Kelvin)      3.04507
 Rotational constant (GHZ):          63.449058
 Zero-point vibrational energy      16266.9 (Joules/Mol)
                                    3.88789 (Kcal/Mol)
 Vibrational temperatures:   3912.93
          (Kelvin)

 Zero-point correction=                           0.006196 (Hartree/Particle)
 Thermal correction to Energy=                    0.008556
 Thermal correction to Enthalpy=                  0.009500
 Thermal correction to Gibbs Free Energy=        -0.012186
 Sum of electronic and zero-point Energies=           -108.974004
 Sum of electronic and thermal Energies=              -108.971643
 Sum of electronic and thermal Enthalpies=            -108.970699
 Sum of electronic and thermal Free Energies=         -108.992386

                     E (Thermal)             CV                S
                      KCal/Mol        Cal/Mol-Kelvin    Cal/Mol-Kelvin
 Total                    5.369              4.969             45.644
 Electronic               0.000              0.000              0.000
 Translational            0.889              2.981             35.924
 Rotational               0.592              1.987              9.719
 Vibrational              3.888              0.001              0.000

 Optimization completed.
    -- Stationary point found.
 Normal termination of Gaussian 16 at Fri Sep  6 09:49:28 2024.
