 Gaussian 16, Revision A.03,
 Gaussian 16:  EM64M-G16RevA.03 25-Dec-2016

 ----------------------------------------------------------------------
 #p opt freq=raman pm6 guess=save pop=(hirshfeld,full) geom=connectivit
 y polar
 ----------------------------------------------------------------------

 ---------------
 N2 Opt Freq PM6
 ---------------
 Symbolic Z-matrix:
 Charge =  0 Multiplicity = 1

 SCF Done:  E(RPM6) =  0.664621341487E-01 A.U. after    6 cycles
 SCF Done:  E(RPM6) =  0.646694617772E-01 A.U. after    5 cycles
 SCF Done:  E(RPM6) =  0.646480600448E-01 A.U. after    5 cycles
 Optimization completed.
    -- Stationary point found.
 Normal termination of Gaussian 16 at Fri Sep  6 09:46:16 2024.

 -------------------------------------------------------------
 #P Geom=AllCheck Guess=TCheck SCRF=Check GenChk RPM6/ZDO Freq
 -------------------------------------------------------------

 Structure from the checkpoint file:  "N2_PM6_Opt_Freq_Full.chk"
 ---------------
 N2 Opt Freq PM6
 ---------------
 Charge =  0 Multiplicity = 1

                         Standard orientation:
 ---------------------------------------------------------------------
 Center     Atomic      Atomic             Coordinates (Angstroms)
 Number     Number       Type             X           Y           Z
 ---------------------------------------------------------------------
      1          7           0        0.000000    0.000000    0.558541
      2          7           0        0.000000    0.000000   -0.558541
 ---------------------------------------------------------------------

 SCF Done:  E(RPM6) =  0.646480600448E-01 A.U. after    2 cycles

 The electronic state is 1-SGG.
 Alpha  occ. eigenvalues --   -1.37836  -0.69265  -0.61076  -0.61076  -0.47276
 Alpha virt. eigenvalues --   -0.00116  -0.00116   0.12921

 Mulliken charges:
               1
     1  N   -0.000000
     2  N   -0.000000
 Sum of Mulliken charges =  -0.00000

 Dipole moment (field-independent basis, Debye):
    X=              0.0000    Y=             -0.0000    Z=              0.0000  Tot=              0.0000
 N-N= 2.203618240200D+01 E-N=-1.569764206040D+01  KE=-2.071483829268D+01
 Symmetry AG   KE=-8.673457665958D+00
 Symmetry B1G  KE= 0.000000000000D+00
 Symmetry B2G  KE= 0.000000000000D+00
 Symmetry B3G  KE=-1.878988026949D-16
 Symmetry AU   KE= 0.000000000000D+00
 Symmetry B1U  KE=-4.142865760625D+00
 Symmetry B2U  KE=-3.949257433051D+00
 Symmetry B3U  KE=-3.949257433051D+00
 StAtR1:  DoIntr=F IAtCor=3 NETot=      10 Failed=F Sum=  4.00D+00 SumC=  0.00D+00

  Exact polarizability:   2.549   0.000   2.549   0.000   0.000  16.137
 Approx polarizability:   1.942   0.000   1.942   0.000   0.000  17.300

                      1
                     SGG
 Frequencies --   2418.3991
 Red. masses --     14.0031
 Frc consts  --     48.2536
 IR Inten    --      0.0000
 Raman Activ --     52.6321

 - Thermochemistry -
 -------------------
 Temperature   298.150 Kelvin.  Pressure   1.00000 Atm.
 Atom     1 has atomic number  7 and mass  14.00307

 Molecular mass:    28.00615 amu.
 Principal axes and moments of inertia in atomic units:
                           1         2         3
     Eigenvalues --     0.00000  31.20044  31.20044
           X           -0.00000   1.00000  -0.00000
           Y            0.00000   0.00000   1.00000
           Z            1.00000   0.00000  -0.00000
 This molecule is a prolate symmetric top.
 Rotational symmetry number  2.
 Rotational temperature (Kelvin)      2.77605
 Rotational constant (GHZ):          57.843459
 Zero-point vibrational energy      14465.2 (Joules/Mol)
                                    3.45728 (Kcal/Mol)
 Vibrational temperatures:   3479.54
          (Kelvin)

 Zero-point correction=                           0.005510 (Hartree/Particle)
 Thermal correction to Energy=                    0.007870
 Thermal correction to Enthalpy=                  0.008814
 Thermal correction to Gibbs Free Energy=        -0.012960
 Sum of electronic and zero-point Energies=              0.070158
 Sum of electronic and thermal Energies=                 0.072518
 Sum of electronic and thermal Enthalpies=               0.073462
 Sum of electronic and thermal Free Energies=            0.051688

                     E (Thermal)             CV                S
                      KCal/Mol        Cal/Mol-Kelvin    Cal/Mol-Kelvin
 Total                    4.939              4.970             45.827
 Electronic               0.000              0.000              0.000
 Translational            0.889              2.981             35.924
 Rotational               0.592              1.987              9.903
 Vibrational              3.457              0.002              0.000

 Optimization completed.
    -- Stationary point found.
 Normal termination of Gaussian 16 at Fri Sep  6 09:46:16 2024.
