 Gaussian 16, Revision A.03,
 Gaussian 16:  EM64M-G16RevA.03 25-Dec-2016

 ----------------------------------------------------------------------
 #p opt freq=raman wb97xd/6-311++g(2d,3p) guess=save pop=(hirshfeld,ful
 l) geom=connectivity polar
 ----------------------------------------------------------------------

 ---------------------------------------------
 O2 DFT WB97XD 6-311++g(2d,3p) Opt Freq - Full
 ---------------------------------------------
 Symbolic Z-matrix:
 Charge =  0 Multiplicity = 1

 SCF Done:  E(RwB97XD) =  -150.259420488     A.U. after   12 cycles
 SCF Done:  E(RwB97XD) =  -150.261492150     A.U. after   10 cycles
 SCF Done:  E(RwB97XD) =  -150.261592728     A.U. after    8 cycles
 Optimization completed.
    -- Stationary point found.
 Normal termination of Gaussian 16 at Fri Sep  6 10:00:38 2024.

 ----------------------------------------------------------------------
 #P Geom=AllCheck Guess=TCheck SCRF=Check GenChk RwB97XD/6-311++G(2d,3p
 ) Freq
 ----------------------------------------------------------------------

 Structure from the checkpoint file:  "O2_DFT_WB97XD_6311pp2d3p_Opt_Freq_Full.chk"
 ---------------------------------------------
 O2 DFT WB97XD 6-311++g(2d,3p) Opt Freq - Full
 ---------------------------------------------
 Charge =  0 Multiplicity = 1

                         Standard orientation:
 ---------------------------------------------------------------------
 Center     Atomic      Atomic             Coordinates (Angstroms)
 Number     Number       Type             X           Y           Z
 ---------------------------------------------------------------------
      1          8           0        0.000000    0.000000    0.598703
      2          8           0        0.000000    0.000000   -0.598703
 ---------------------------------------------------------------------

 SCF Done:  E(RwB97XD) =  -150.261592728     A.U. after    1 cycles

 Unable to determine electronic state:  partially filled degenerate orbitals.
 Alpha  occ. eigenvalues --  -19.41192 -19.41163  -1.40674  -0.90383  -0.63753
 Alpha  occ. eigenvalues --   -0.62097  -0.61851  -0.34487
 Alpha virt. eigenvalues --   -0.10441   0.16350   0.16658   0.20578   0.21411
 Alpha virt. eigenvalues --    0.26999   0.28111   0.28381   0.35384   0.41255
 Alpha virt. eigenvalues --    0.99117   1.00839   1.01547   1.02700   1.09470

 Mulliken charges:
               1
     1  O   -0.000000
     2  O   -0.000000
 Sum of Mulliken charges =  -0.00000

 Dipole moment (field-independent basis, Debye):
    X=             -0.0000    Y=              0.0000    Z=              0.0000  Tot=              0.0000
 Quadrupole moment (field-independent basis, Debye-Ang):
   XX=            -11.0714   YY=             -9.1556   ZZ=            -10.5870
   XY=              0.0000   XZ=              0.0000   YZ=             -0.0000

  Exact polarizability:   6.443   0.000   5.763  -0.000  -0.000  13.278
 Approx polarizability:   5.953  -0.000   6.549  -0.000  -0.000  17.845

                      1
                     SGG
 Frequencies --   1701.1064
 Red. masses --     15.9949
 Frc consts  --     27.2706
 IR Inten    --      0.0000
 Raman Activ --     11.4309

 - Thermochemistry -
 -------------------
 Temperature   298.150 Kelvin.  Pressure   1.00000 Atm.
 Atom     1 has atomic number  8 and mass  15.99491

 Molecular mass:    31.98983 amu.
 Principal axes and moments of inertia in atomic units:
                           1         2         3
     Eigenvalues --     0.00000  40.94795  40.94795
           X           -0.00000   1.00000  -0.00000
           Y            0.00000   0.00000   1.00000
           Z            1.00000   0.00000  -0.00000
 This molecule is a prolate symmetric top.
 Rotational symmetry number  2.
 Rotational temperature (Kelvin)      2.11522
 Rotational constant (GHZ):          44.074033
 Zero-point vibrational energy      10174.9 (Joules/Mol)
                                    2.43185 (Kcal/Mol)
 Vibrational temperatures:   2447.51
          (Kelvin)

 Zero-point correction=                           0.003875 (Hartree/Particle)
 Thermal correction to Energy=                    0.006238
 Thermal correction to Enthalpy=                  0.007182
 Thermal correction to Gibbs Free Energy=        -0.015039
 Sum of electronic and zero-point Energies=           -150.257717
 Sum of electronic and thermal Energies=              -150.255355
 Sum of electronic and thermal Enthalpies=            -150.254411
 Sum of electronic and thermal Free Energies=         -150.276632

                     E (Thermal)             CV                S
                      KCal/Mol        Cal/Mol-Kelvin    Cal/Mol-Kelvin
 Total                    3.914              5.004             46.769
 Electronic               0.000              0.000              0.000
 Translational            0.889              2.981             36.321
 Rotational               0.592              1.987             10.443
 Vibrational              2.433              0.036              0.005

 Optimization completed.
    -- Stationary point found.
 Normal termination of Gaussian 16 at Fri Sep  6 10:00:42 2024.
