 Gaussian 16, Revision A.03,
 Gaussian 16:  EM64M-G16RevA.03 25-Dec-2016

 ----------------------------------------------------------------------
 #p opt freq=raman b3lyp/aug-cc-pvtz guess=save pop=(hirshfeld,full) ge
 om=connectivity polar
 ----------------------------------------------------------------------

 ----------------------------------------
 O2 DFT B3LPY aug-cc-pVTZ Opt Freq - Full
 ----------------------------------------
 Symbolic Z-matrix:
 Charge =  0 Multiplicity = 1

 SCF Done:  E(RB3LYP) =  -150.320393416     A.U. after    9 cycles
 SCF Done:  E(RB3LYP) =  -150.323152292     A.U. after    8 cycles
 SCF Done:  E(RB3LYP) =  -150.323360648     A.U. after    7 cycles
 Optimization completed.
    -- Stationary point found.
 Normal termination of Gaussian 16 at Fri Sep  6 10:02:27 2024.

 ----------------------------------------------------------------------
 #P Geom=AllCheck Guess=TCheck SCRF=Check GenChk RB3LYP/Aug-CC-pVTZ Fre
 q
 ----------------------------------------------------------------------

 Structure from the checkpoint file:  "O2_DFT_B3LPY_apVTZ_Opt_Freq_Full.chk"
 ----------------------------------------
 O2 DFT B3LPY aug-cc-pVTZ Opt Freq - Full
 ----------------------------------------
 Charge =  0 Multiplicity = 1

                         Standard orientation:
 ---------------------------------------------------------------------
 Center     Atomic      Atomic             Coordinates (Angstroms)
 Number     Number       Type             X           Y           Z
 ---------------------------------------------------------------------
      1          8           0        0.000000    0.000000    0.602613
      2          8           0        0.000000    0.000000   -0.602613
 ---------------------------------------------------------------------

 SCF Done:  E(RB3LYP) =  -150.323360648     A.U. after    1 cycles

 Unable to determine electronic state:  partially filled degenerate orbitals.
 Alpha  occ. eigenvalues --  -19.29634 -19.29605  -1.29734  -0.81065  -0.54915
 Alpha  occ. eigenvalues --   -0.53338  -0.52792  -0.26469
 Alpha virt. eigenvalues --   -0.19198   0.04835   0.05967   0.08371   0.08785
 Alpha virt. eigenvalues --    0.13579   0.14492   0.14738   0.21078   0.29670
 Alpha virt. eigenvalues --    0.42185   0.42189   0.53360   0.60137   0.61179

 Mulliken charges:
               1
     1  O    0.000000
     2  O    0.000000
 Sum of Mulliken charges =   0.00000

 Dipole moment (field-independent basis, Debye):
    X=              0.0000    Y=             -0.0000    Z=              0.0000  Tot=              0.0000
 Quadrupole moment (field-independent basis, Debye-Ang):
   XX=            -11.1198   YY=             -9.2858   ZZ=            -10.7237
   XY=              0.0000   XZ=              0.0000   YZ=              0.0000

  Exact polarizability:   8.541  -0.000   7.798  -0.000   0.000  14.498
 Approx polarizability:   9.590  -0.000  10.427  -0.000  -0.000  26.736

                      1
                     SGG
 Frequencies --   1614.0068
 Red. masses --     15.9949
 Frc consts  --     24.5495
 IR Inten    --      0.0000
 Raman Activ --      9.8225

 - Thermochemistry -
 -------------------
 Temperature   298.150 Kelvin.  Pressure   1.00000 Atm.
 Atom     1 has atomic number  8 and mass  15.99491

 Molecular mass:    31.98983 amu.
 Principal axes and moments of inertia in atomic units:
                           1         2         3
     Eigenvalues --     0.00000  41.48458  41.48458
           X           -0.00000   1.00000  -0.00000
           Y            0.00000   0.00000   1.00000
           Z            1.00000   0.00000  -0.00000
 This molecule is a prolate symmetric top.
 Rotational symmetry number  2.
 Rotational temperature (Kelvin)      2.08786
 Rotational constant (GHZ):          43.503907
 Zero-point vibrational energy       9653.9 (Joules/Mol)
                                    2.30734 (Kcal/Mol)
 Vibrational temperatures:   2322.20
          (Kelvin)

 Zero-point correction=                           0.003677 (Hartree/Particle)
 Thermal correction to Energy=                    0.006040
 Thermal correction to Enthalpy=                  0.006985
 Thermal correction to Gibbs Free Energy=        -0.015250
 Sum of electronic and zero-point Energies=           -150.319684
 Sum of electronic and thermal Energies=              -150.317320
 Sum of electronic and thermal Enthalpies=            -150.316376
 Sum of electronic and thermal Free Energies=         -150.338611

                     E (Thermal)             CV                S
                      KCal/Mol        Cal/Mol-Kelvin    Cal/Mol-Kelvin
 Total                    3.790              5.018             46.797
 Electronic               0.000              0.000              0.000
 Translational            0.889              2.981             36.321
 Rotational               0.592              1.987             10.469
 Vibrational              2.309              0.050              0.007

 Optimization completed.
    -- Stationary point found.
 Normal termination of Gaussian 16 at Fri Sep  6 10:02:38 2024.
