 Gaussian 16, Revision A.03,
 Gaussian 16:  EM64M-G16RevA.03 25-Dec-2016

 ----------------------------------------------------------------------
 #p opt=tight freq=raman ub3lyp/6-311++g(2d,3p) guess=save pop=(hirshfe
 ld,full,nbo) geom=connectivity polar
 ----------------------------------------------------------------------

 -------------------------------
 O2 uHF 6-311++g(2d,3p) Opt Freq
 -------------------------------
 Symbolic Z-matrix:
 Charge =  0 Multiplicity = 1

 SCF Done:  E(UB3LYP) =  -150.309763055     A.U. after    9 cycles
 SCF Done:  E(UB3LYP) =  -150.312934001     A.U. after    8 cycles
 SCF Done:  E(UB3LYP) =  -150.313158950     A.U. after    6 cycles
 SCF Done:  E(UB3LYP) =  -150.313158955     A.U. after    4 cycles
 Optimization completed.
    -- Stationary point found.
 Normal termination of Gaussian 16 at Fri Sep  6 10:24:25 2024.

 ----------------------------------------------------------------------
 #P Geom=AllCheck Guess=TCheck SCRF=Check GenChk UB3LYP/6-311++G(2d,3p)
  Freq
 ----------------------------------------------------------------------

 Structure from the checkpoint file:  "O2_DFT_uB3LPY_Opt_Freq_Full_NBO.chk"
 -------------------------------
 O2 uHF 6-311++g(2d,3p) Opt Freq
 -------------------------------
 Charge =  0 Multiplicity = 1

                         Standard orientation:
 ---------------------------------------------------------------------
 Center     Atomic      Atomic             Coordinates (Angstroms)
 Number     Number       Type             X           Y           Z
 ---------------------------------------------------------------------
      1          8           0        0.000000    0.000000    0.604005
      2          8           0        0.000000    0.000000   -0.604005
 ---------------------------------------------------------------------

 SCF Done:  E(UB3LYP) =  -150.313158955     A.U. after    1 cycles

 Unable to determine electronic state:  partially filled degenerate orbitals.
 Alpha  occ. eigenvalues --  -19.29100 -19.29075  -1.29816  -0.81200  -0.55070
 Alpha  occ. eigenvalues --   -0.53399  -0.52696  -0.26590
 Alpha virt. eigenvalues --   -0.19470   0.08083   0.08458   0.12626   0.13306
 Alpha virt. eigenvalues --    0.19004   0.20610   0.20644   0.25246   0.33618
 Alpha virt. eigenvalues --    0.89653   0.92549   0.93385   0.94321   1.00747

  Beta  occ. eigenvalues --  -19.29100 -19.29075  -1.29816  -0.81200  -0.55070
  Beta  occ. eigenvalues --   -0.53399  -0.52696  -0.26590
  Beta virt. eigenvalues --   -0.19470   0.08083   0.08458   0.12626   0.13306
  Beta virt. eigenvalues --    0.19004   0.20610   0.20644   0.25246   0.33618
  Beta virt. eigenvalues --    0.89653   0.92549   0.93385   0.94321   1.00747

 Mulliken charges and spin densities:
               1          2
     1  O   -0.000000  -0.000000
     2  O   -0.000000  -0.000000
 Sum of Mulliken charges =  -0.00000  -0.00000

 Dipole moment (field-independent basis, Debye):
    X=              0.0000    Y=             -0.0000    Z=              0.0000  Tot=              0.0000
 Quadrupole moment (field-independent basis, Debye-Ang):
   XX=            -11.1754   YY=             -9.2505   ZZ=            -10.6992
   XY=              0.0000   XZ=              0.0000   YZ=             -0.0000

  Exact polarizability:   6.588  -0.000   5.874  -0.000   0.000  13.477
 Approx polarizability:   7.260  -0.000   7.969  -0.000  -0.000  25.525

 Summary of Natural Population Analysis:

                                       Natural Population
                Natural  -----------------------------------------------
    Atom  No    Charge         Core      Valence    Rydberg      Total
 -----------------------------------------------------------------------
      O    1    0.00000      0.99995     2.98052    0.01952     4.00000
      O    2    0.00000      0.99995     2.98052    0.01952     4.00000
 =======================================================================
   * Total *    0.00000      1.99990     5.96105    0.03905     8.00000

                      1
                     SGG
 Frequencies --   1617.8370
 Red. masses --     15.9949
 Frc consts  --     24.6662
 IR Inten    --      0.0000
 Raman Activ --     11.1052

 - Thermochemistry -
 -------------------
 Temperature   298.150 Kelvin.  Pressure   1.00000 Atm.
 Atom     1 has atomic number  8 and mass  15.99491

 Molecular mass:    31.98983 amu.
 Principal axes and moments of inertia in atomic units:
                           1         2         3
     Eigenvalues --    -0.00000  41.67644  41.67644
           X           -0.00000   0.70711   0.70711
           Y           -0.00000   0.70711  -0.70711
           Z            1.00000   0.00000   0.00000
 This molecule is a prolate symmetric top.
 Rotational symmetry number  2.
 Rotational temperature (Kelvin)      2.07825
 Rotational constant (GHZ):          43.303626
 Zero-point vibrational energy       9676.8 (Joules/Mol)
                                    2.31281 (Kcal/Mol)
 Vibrational temperatures:   2327.71
          (Kelvin)

 Zero-point correction=                           0.003686 (Hartree/Particle)
 Thermal correction to Energy=                    0.006049
 Thermal correction to Enthalpy=                  0.006993
 Thermal correction to Gibbs Free Energy=        -0.015246
 Sum of electronic and zero-point Energies=           -150.309473
 Sum of electronic and thermal Energies=              -150.307110
 Sum of electronic and thermal Enthalpies=            -150.306166
 Sum of electronic and thermal Free Energies=         -150.328405

                     E (Thermal)             CV                S
                      KCal/Mol        Cal/Mol-Kelvin    Cal/Mol-Kelvin
 Total                    3.796              5.017             46.806
 Electronic               0.000              0.000              0.000
 Translational            0.889              2.981             36.321
 Rotational               0.592              1.987             10.478
 Vibrational              2.315              0.049              0.007

 Optimization completed.
    -- Stationary point found.
 Normal termination of Gaussian 16 at Fri Sep  6 10:24:30 2024.
