 Gaussian 16, Revision A.03,
 Gaussian 16:  EM64M-G16RevA.03 25-Dec-2016

 ----------------------------------------------------------------------
 #p opt freq=raman b3lyp/6-311++g(2d,3p) guess=save pop=(hirshfeld,full
 ) geom=connectivity polar
 ----------------------------------------------------------------------

 --------------------------------------------
 O2 DFT B3LPY 6-311++g(2d,3p) Opt Freq - Full
 --------------------------------------------
 Symbolic Z-matrix:
 Charge =  0 Multiplicity = 1

 SCF Done:  E(RB3LYP) =  -150.309763055     A.U. after    9 cycles
 SCF Done:  E(RB3LYP) =  -150.312934001     A.U. after    8 cycles
 SCF Done:  E(RB3LYP) =  -150.313158950     A.U. after    6 cycles
 Optimization completed.
    -- Stationary point found.
 Normal termination of Gaussian 16 at Fri Sep  6 09:59:44 2024.

 ----------------------------------------------------------------------
 #P Geom=AllCheck Guess=TCheck SCRF=Check GenChk RB3LYP/6-311++G(2d,3p)
  Freq
 ----------------------------------------------------------------------

 Structure from the checkpoint file:  "O2_DFT_B3LPY_6311pp2d3p_Opt_Freq_Full.chk"
 --------------------------------------------
 O2 DFT B3LPY 6-311++g(2d,3p) Opt Freq - Full
 --------------------------------------------
 Charge =  0 Multiplicity = 1

                         Standard orientation:
 ---------------------------------------------------------------------
 Center     Atomic      Atomic             Coordinates (Angstroms)
 Number     Number       Type             X           Y           Z
 ---------------------------------------------------------------------
      1          8           0        0.000000    0.000000    0.604035
      2          8           0        0.000000    0.000000   -0.604035
 ---------------------------------------------------------------------

 SCF Done:  E(RB3LYP) =  -150.313158950     A.U. after    1 cycles

 Unable to determine electronic state:  partially filled degenerate orbitals.
 Alpha  occ. eigenvalues --  -19.29101 -19.29075  -1.29811  -0.81201  -0.55069
 Alpha  occ. eigenvalues --   -0.53396  -0.52694  -0.26592
 Alpha virt. eigenvalues --   -0.19472   0.08083   0.08457   0.12627   0.13306
 Alpha virt. eigenvalues --    0.19004   0.20610   0.20644   0.25238   0.33617
 Alpha virt. eigenvalues --    0.89653   0.92549   0.93387   0.94321   1.00747

 Mulliken charges:
               1
     1  O    0.000000
     2  O    0.000000
 Sum of Mulliken charges =   0.00000

 Dipole moment (field-independent basis, Debye):
    X=             -0.0000    Y=             -0.0000    Z=             -0.0000  Tot=              0.0000
 Quadrupole moment (field-independent basis, Debye-Ang):
   XX=            -11.1754   YY=             -9.2506   ZZ=            -10.6991
   XY=              0.0000   XZ=              0.0000   YZ=             -0.0000

  Exact polarizability:   6.588   0.000   5.874  -0.000  -0.000  13.478
 Approx polarizability:   7.260  -0.000   7.969  -0.000  -0.000  25.530

                      1
                     SGG
 Frequencies --   1617.5013
 Red. masses --     15.9949
 Frc consts  --     24.6559
 IR Inten    --      0.0000
 Raman Activ --     11.1077

 - Thermochemistry -
 -------------------
 Temperature   298.150 Kelvin.  Pressure   1.00000 Atm.
 Atom     1 has atomic number  8 and mass  15.99491

 Molecular mass:    31.98983 amu.
 Principal axes and moments of inertia in atomic units:
                           1         2         3
     Eigenvalues --     0.00000  41.68060  41.68060
           X           -0.00000   1.00000  -0.00000
           Y            0.00000   0.00000   1.00000
           Z            1.00000   0.00000  -0.00000
 This molecule is a prolate symmetric top.
 Rotational symmetry number  2.
 Rotational temperature (Kelvin)      2.07804
 Rotational constant (GHZ):          43.299306
 Zero-point vibrational energy       9674.8 (Joules/Mol)
                                    2.31233 (Kcal/Mol)
 Vibrational temperatures:   2327.22
          (Kelvin)

 Zero-point correction=                           0.003685 (Hartree/Particle)
 Thermal correction to Energy=                    0.006048
 Thermal correction to Enthalpy=                  0.006993
 Thermal correction to Gibbs Free Energy=        -0.015247
 Sum of electronic and zero-point Energies=           -150.309474
 Sum of electronic and thermal Energies=              -150.307111
 Sum of electronic and thermal Enthalpies=            -150.306166
 Sum of electronic and thermal Free Energies=         -150.328406

                     E (Thermal)             CV                S
                      KCal/Mol        Cal/Mol-Kelvin    Cal/Mol-Kelvin
 Total                    3.795              5.017             46.806
 Electronic               0.000              0.000              0.000
 Translational            0.889              2.981             36.321
 Rotational               0.592              1.987             10.479
 Vibrational              2.314              0.049              0.007

 Optimization completed.
    -- Stationary point found.
 Normal termination of Gaussian 16 at Fri Sep  6 09:59:47 2024.
