 Gaussian 16, Revision A.03,
 Gaussian 16:  EM64M-G16RevA.03 25-Dec-2016

 ----------------------------------------------------------------------
 #p opt freq=raman wb97xd/aug-cc-pvtz guess=save pop=(hirshfeld,full) g
 eom=connectivity polar
 ----------------------------------------------------------------------

 -----------------------------------------
 O2 DFT WB97XD aug-cc-pVTZ Opt Freq - Full
 -----------------------------------------
 Symbolic Z-matrix:
 Charge =  0 Multiplicity = 1

 SCF Done:  E(RwB97XD) =  -150.271161203     A.U. after   11 cycles
 SCF Done:  E(RwB97XD) =  -150.272938398     A.U. after    9 cycles
 SCF Done:  E(RwB97XD) =  -150.273033598     A.U. after    8 cycles
 Optimization completed.
    -- Stationary point found.
 Normal termination of Gaussian 16 at Fri Sep  6 10:01:30 2024.

 ----------------------------------------------------------------------
 #P Geom=AllCheck Guess=TCheck SCRF=Check GenChk RwB97XD/Aug-CC-pVTZ Fr
 eq
 ----------------------------------------------------------------------

 Structure from the checkpoint file:  "O2_DFT_WB97XD_apVTZ_Opt_Freq_Full.chk"
 -----------------------------------------
 O2 DFT WB97XD aug-cc-pVTZ Opt Freq - Full
 -----------------------------------------
 Charge =  0 Multiplicity = 1

                         Standard orientation:
 ---------------------------------------------------------------------
 Center     Atomic      Atomic             Coordinates (Angstroms)
 Number     Number       Type             X           Y           Z
 ---------------------------------------------------------------------
      1          8           0        0.000000    0.000000    0.597517
      2          8           0        0.000000    0.000000   -0.597517
 ---------------------------------------------------------------------

 SCF Done:  E(RwB97XD) =  -150.273033598     A.U. after    1 cycles

 Unable to determine electronic state:  partially filled degenerate orbitals.
 Alpha  occ. eigenvalues --  -19.41367 -19.41335  -1.40331  -0.90087  -0.63393
 Alpha  occ. eigenvalues --   -0.61828  -0.61738  -0.34183
 Alpha virt. eigenvalues --   -0.09973   0.10289   0.13973   0.15004   0.15656
 Alpha virt. eigenvalues --    0.20020   0.20427   0.20685   0.29571   0.38500
 Alpha virt. eigenvalues --    0.52038   0.52064   0.61744   0.70468   0.70677

 Mulliken charges:
               1
     1  O   -0.000000
     2  O   -0.000000
 Sum of Mulliken charges =  -0.00000

 Dipole moment (field-independent basis, Debye):
    X=             -0.0000    Y=             -0.0000    Z=             -0.0000  Tot=              0.0000
 Quadrupole moment (field-independent basis, Debye-Ang):
   XX=            -10.9969   YY=             -9.1685   ZZ=            -10.5659
   XY=              0.0000   XZ=              0.0000   YZ=              0.0000

  Exact polarizability:   8.598   0.000   7.813  -0.000   0.000  14.304
 Approx polarizability:   7.685  -0.000   8.382  -0.000  -0.000  18.734

                      1
                     SGG
 Frequencies --   1695.2219
 Red. masses --     15.9949
 Frc consts  --     27.0823
 IR Inten    --      0.0000
 Raman Activ --     10.0478

 - Thermochemistry -
 -------------------
 Temperature   298.150 Kelvin.  Pressure   1.00000 Atm.
 Atom     1 has atomic number  8 and mass  15.99491

 Molecular mass:    31.98983 amu.
 Principal axes and moments of inertia in atomic units:
                           1         2         3
     Eigenvalues --     0.00000  40.78590  40.78590
           X           -0.00000   1.00000  -0.00000
           Y            0.00000   0.00000   1.00000
           Z            1.00000   0.00000  -0.00000
 This molecule is a prolate symmetric top.
 Rotational symmetry number  2.
 Rotational temperature (Kelvin)      2.12362
 Rotational constant (GHZ):          44.249144
 Zero-point vibrational energy      10139.7 (Joules/Mol)
                                    2.42344 (Kcal/Mol)
 Vibrational temperatures:   2439.05
          (Kelvin)

 Zero-point correction=                           0.003862 (Hartree/Particle)
 Thermal correction to Energy=                    0.006225
 Thermal correction to Enthalpy=                  0.007169
 Thermal correction to Gibbs Free Energy=        -0.015049
 Sum of electronic and zero-point Energies=           -150.269172
 Sum of electronic and thermal Energies=              -150.266809
 Sum of electronic and thermal Enthalpies=            -150.265865
 Sum of electronic and thermal Free Energies=         -150.288083

                     E (Thermal)             CV                S
                      KCal/Mol        Cal/Mol-Kelvin    Cal/Mol-Kelvin
 Total                    3.906              5.005             46.761
 Electronic               0.000              0.000              0.000
 Translational            0.889              2.981             36.321
 Rotational               0.592              1.987             10.435
 Vibrational              2.425              0.037              0.005

 Optimization completed.
    -- Stationary point found.
 Normal termination of Gaussian 16 at Fri Sep  6 10:01:47 2024.
