 Gaussian 16, Revision A.03,
 Gaussian 16:  EM64M-G16RevA.03 25-Dec-2016

 ----------------------------------------------------------------------
 #p opt=tight freq=raman uwb97xd/aug-cc-pvtz guess=save pop=(hirshfeld,
 full,nbo) geom=connectivity polar
 ----------------------------------------------------------------------

 ------------------------------------------------
 O2 DFT uWB97XD aug-cc-pVTZ Opt Freq - Full - NBO
 ------------------------------------------------
 Symbolic Z-matrix:
 Charge =  0 Multiplicity = 1

 SCF Done:  E(UwB97XD) =  -150.271161203     A.U. after   11 cycles
 SCF Done:  E(UwB97XD) =  -150.272938398     A.U. after    9 cycles
 SCF Done:  E(UwB97XD) =  -150.273033598     A.U. after    8 cycles
 SCF Done:  E(UwB97XD) =  -150.273033599     A.U. after    4 cycles
 Optimization completed.
    -- Stationary point found.
 Normal termination of Gaussian 16 at Fri Sep  6 10:55:01 2024.

 ----------------------------------------------------------------------
 #P Geom=AllCheck Guess=TCheck SCRF=Check GenChk UwB97XD/Aug-CC-pVTZ Fr
 eq
 ----------------------------------------------------------------------

 Structure from the checkpoint file:  "O2_DFT_uWB97XD_apVTZ_Opt_Freq_Full_NBO.chk"
 ------------------------------------------------
 O2 DFT uWB97XD aug-cc-pVTZ Opt Freq - Full - NBO
 ------------------------------------------------
 Charge =  0 Multiplicity = 1

                         Standard orientation:
 ---------------------------------------------------------------------
 Center     Atomic      Atomic             Coordinates (Angstroms)
 Number     Number       Type             X           Y           Z
 ---------------------------------------------------------------------
      1          8           0        0.000000    0.000000    0.597509
      2          8           0        0.000000    0.000000   -0.597509
 ---------------------------------------------------------------------

 SCF Done:  E(UwB97XD) =  -150.273033599     A.U. after    1 cycles

 Unable to determine electronic state:  partially filled degenerate orbitals.
 Alpha  occ. eigenvalues --  -19.41367 -19.41335  -1.40332  -0.90087  -0.63394
 Alpha  occ. eigenvalues --   -0.61829  -0.61739  -0.34183
 Alpha virt. eigenvalues --   -0.09973   0.10289   0.13973   0.15004   0.15656
 Alpha virt. eigenvalues --    0.20020   0.20427   0.20685   0.29573   0.38501
 Alpha virt. eigenvalues --    0.52038   0.52064   0.61744   0.70468   0.70677

  Beta  occ. eigenvalues --  -19.41367 -19.41335  -1.40332  -0.90087  -0.63394
  Beta  occ. eigenvalues --   -0.61829  -0.61739  -0.34183
  Beta virt. eigenvalues --   -0.09973   0.10289   0.13973   0.15004   0.15656
  Beta virt. eigenvalues --    0.20020   0.20427   0.20685   0.29573   0.38501
  Beta virt. eigenvalues --    0.52038   0.52064   0.61744   0.70468   0.70677

 Mulliken charges and spin densities:
               1          2
     1  O   -0.000000   0.000000
     2  O   -0.000000   0.000000
 Sum of Mulliken charges =  -0.00000   0.00000

 Dipole moment (field-independent basis, Debye):
    X=              0.0000    Y=             -0.0000    Z=             -0.0000  Tot=              0.0000
 Quadrupole moment (field-independent basis, Debye-Ang):
   XX=             -9.1685   YY=            -10.9968   ZZ=            -10.5659
   XY=              0.0000   XZ=              0.0000   YZ=              0.0000

  Exact polarizability:   7.813   0.000   8.598  -0.000   0.000  14.304
 Approx polarizability:   8.382  -0.000   7.685  -0.000  -0.000  18.733

 Summary of Natural Population Analysis:

                                       Natural Population
                Natural  -----------------------------------------------
    Atom  No    Charge         Core      Valence    Rydberg      Total
 -----------------------------------------------------------------------
      O    1   -0.00000      0.99996     2.97971    0.02033     4.00000
      O    2   -0.00000      0.99996     2.97971    0.02033     4.00000
 =======================================================================
   * Total *   -0.00000      1.99993     5.95941    0.04066     8.00000

                      1
                     SGG
 Frequencies --   1695.3186
 Red. masses --     15.9949
 Frc consts  --     27.0854
 IR Inten    --      0.0000
 Raman Activ --     10.0469

 - Thermochemistry -
 -------------------
 Temperature   298.150 Kelvin.  Pressure   1.00000 Atm.
 Atom     1 has atomic number  8 and mass  15.99491

 Molecular mass:    31.98983 amu.
 Principal axes and moments of inertia in atomic units:
                           1         2         3
     Eigenvalues --    -0.00000  40.78475  40.78475
           X           -0.00000   0.70711   0.70711
           Y           -0.00000   0.70711  -0.70711
           Z            1.00000   0.00000   0.00000
 This molecule is a prolate symmetric top.
 Rotational symmetry number  2.
 Rotational temperature (Kelvin)      2.12368
 Rotational constant (GHZ):          44.250389
 Zero-point vibrational energy      10140.3 (Joules/Mol)
                                    2.42358 (Kcal/Mol)
 Vibrational temperatures:   2439.19
          (Kelvin)

 Zero-point correction=                           0.003862 (Hartree/Particle)
 Thermal correction to Energy=                    0.006225
 Thermal correction to Enthalpy=                  0.007169
 Thermal correction to Gibbs Free Energy=        -0.015049
 Sum of electronic and zero-point Energies=           -150.269171
 Sum of electronic and thermal Energies=              -150.266809
 Sum of electronic and thermal Enthalpies=            -150.265865
 Sum of electronic and thermal Free Energies=         -150.288082

                     E (Thermal)             CV                S
                      KCal/Mol        Cal/Mol-Kelvin    Cal/Mol-Kelvin
 Total                    3.906              5.005             46.761
 Electronic               0.000              0.000              0.000
 Translational            0.889              2.981             36.321
 Rotational               0.592              1.987             10.435
 Vibrational              2.425              0.037              0.005

 Optimization completed.
    -- Stationary point found.
 Normal termination of Gaussian 16 at Fri Sep  6 10:55:21 2024.
