 Gaussian 16, Revision A.03,
 Gaussian 16:  EM64M-G16RevA.03 25-Dec-2016

 ----------------------------------------------------------------------
 #p opt=tight freq=raman ub3lyp/aug-cc-pvtz guess=save pop=(hirshfeld,f
 ull,nbo) geom=connectivity polar
 ----------------------------------------------------------------------

 -----------------------------------------------
 O2 DFT uB3LPY aug-cc-pVTZ Opt Freq - Full - NBO
 -----------------------------------------------
 Symbolic Z-matrix:
 Charge =  0 Multiplicity = 1

 SCF Done:  E(UB3LYP) =  -150.320393416     A.U. after    9 cycles
 SCF Done:  E(UB3LYP) =  -150.323152292     A.U. after    8 cycles
 SCF Done:  E(UB3LYP) =  -150.323360648     A.U. after    7 cycles
 SCF Done:  E(UB3LYP) =  -150.323360652     A.U. after    4 cycles
 Optimization completed.
    -- Stationary point found.
 Normal termination of Gaussian 16 at Fri Sep  6 10:25:57 2024.

 ----------------------------------------------------------------------
 #P Geom=AllCheck Guess=TCheck SCRF=Check GenChk UB3LYP/Aug-CC-pVTZ Fre
 q
 ----------------------------------------------------------------------

 Structure from the checkpoint file:  "O2_DFT_uB3LPY_apVTZ_Opt_Freq_Full_NBO.chk"
 -----------------------------------------------
 O2 DFT uB3LPY aug-cc-pVTZ Opt Freq - Full - NBO
 -----------------------------------------------
 Charge =  0 Multiplicity = 1

                         Standard orientation:
 ---------------------------------------------------------------------
 Center     Atomic      Atomic             Coordinates (Angstroms)
 Number     Number       Type             X           Y           Z
 ---------------------------------------------------------------------
      1          8           0        0.000000    0.000000    0.602585
      2          8           0        0.000000    0.000000   -0.602585
 ---------------------------------------------------------------------

 SCF Done:  E(UB3LYP) =  -150.323360652     A.U. after    1 cycles

 Unable to determine electronic state:  partially filled degenerate orbitals.
 Alpha  occ. eigenvalues --  -19.29633 -19.29605  -1.29738  -0.81063  -0.54916
 Alpha  occ. eigenvalues --   -0.53341  -0.52794  -0.26467
 Alpha virt. eigenvalues --   -0.19196   0.04836   0.05967   0.08371   0.08785
 Alpha virt. eigenvalues --    0.13579   0.14492   0.14738   0.21083   0.29672
 Alpha virt. eigenvalues --    0.42185   0.42189   0.53359   0.60138   0.61179

  Beta  occ. eigenvalues --  -19.29633 -19.29605  -1.29738  -0.81063  -0.54916
  Beta  occ. eigenvalues --   -0.53341  -0.52794  -0.26467
  Beta virt. eigenvalues --   -0.19196   0.04836   0.05967   0.08371   0.08785
  Beta virt. eigenvalues --    0.13579   0.14492   0.14738   0.21083   0.29672
  Beta virt. eigenvalues --    0.42185   0.42189   0.53359   0.60138   0.61179

 Mulliken charges and spin densities:
               1          2
     1  O   -0.000000   0.000000
     2  O   -0.000000   0.000000
 Sum of Mulliken charges =  -0.00000   0.00000

 Dipole moment (field-independent basis, Debye):
    X=             -0.0000    Y=              0.0000    Z=             -0.0000  Tot=              0.0000
 Quadrupole moment (field-independent basis, Debye-Ang):
   XX=            -11.1198   YY=             -9.2857   ZZ=            -10.7238
   XY=              0.0000   XZ=              0.0000   YZ=              0.0000

  Exact polarizability:   8.541  -0.000   7.798  -0.000   0.000  14.498
 Approx polarizability:   9.590  -0.000  10.426  -0.000  -0.000  26.731

 Summary of Natural Population Analysis:

                                       Natural Population
                Natural  -----------------------------------------------
    Atom  No    Charge         Core      Valence    Rydberg      Total
 -----------------------------------------------------------------------
      O    1   -0.00000      0.99996     2.97958    0.02046     4.00000
      O    2   -0.00000      0.99996     2.97958    0.02046     4.00000
 =======================================================================
   * Total *   -0.00000      1.99993     5.95915    0.04092     8.00000

                      1
                     SGG
 Frequencies --   1614.3239
 Red. masses --     15.9949
 Frc consts  --     24.5592
 IR Inten    --      0.0000
 Raman Activ --      9.8196

 - Thermochemistry -
 -------------------
 Temperature   298.150 Kelvin.  Pressure   1.00000 Atm.
 Atom     1 has atomic number  8 and mass  15.99491

 Molecular mass:    31.98983 amu.
 Principal axes and moments of inertia in atomic units:
                           1         2         3
     Eigenvalues --    -0.00000  41.48073  41.48073
           X           -0.00000   1.00000  -0.00000
           Y            0.00000   0.00000   1.00000
           Z            1.00000   0.00000  -0.00000
 This molecule is a prolate symmetric top.
 Rotational symmetry number  2.
 Rotational temperature (Kelvin)      2.08805
 Rotational constant (GHZ):          43.507939
 Zero-point vibrational energy       9655.8 (Joules/Mol)
                                    2.30779 (Kcal/Mol)
 Vibrational temperatures:   2322.65
          (Kelvin)

 Zero-point correction=                           0.003678 (Hartree/Particle)
 Thermal correction to Energy=                    0.006041
 Thermal correction to Enthalpy=                  0.006985
 Thermal correction to Gibbs Free Energy=        -0.015249
 Sum of electronic and zero-point Energies=           -150.319683
 Sum of electronic and thermal Energies=              -150.317319
 Sum of electronic and thermal Enthalpies=            -150.316375
 Sum of electronic and thermal Free Energies=         -150.338610

                     E (Thermal)             CV                S
                      KCal/Mol        Cal/Mol-Kelvin    Cal/Mol-Kelvin
 Total                    3.791              5.018             46.797
 Electronic               0.000              0.000              0.000
 Translational            0.889              2.981             36.321
 Rotational               0.592              1.987             10.469
 Vibrational              2.310              0.050              0.007

 Optimization completed.
    -- Stationary point found.
 Normal termination of Gaussian 16 at Fri Sep  6 10:26:12 2024.
