 Gaussian 16, Revision A.03,
 Gaussian 16:  EM64M-G16RevA.03 25-Dec-2016

 ----------------------------------------------------------------------
 #p opt freq=raman hf/6-311++g(2d,3p) guess=save pop=(hirshfeld,full) g
 eom=connectivity polar
 ----------------------------------------------------------------------

 -------------------------------------
 O2 HF 6-311++g(2d,3p) Opt Freq - Full
 -------------------------------------
 Symbolic Z-matrix:
 Charge =  0 Multiplicity = 1

 SCF Done:  E(RHF) =  -149.584129425     A.U. after    9 cycles
 SCF Done:  E(RHF) =  -149.584166656     A.U. after    7 cycles
 SCF Done:  E(RHF) =  -149.584166943     A.U. after    6 cycles
 Optimization completed.
    -- Stationary point found.
 Normal termination of Gaussian 16 at Fri Sep  6 09:58:55 2024.

 ----------------------------------------------------------------------
 #P Geom=AllCheck Guess=TCheck SCRF=Check GenChk RHF/6-311++G(2d,3p) Fr
 eq
 ----------------------------------------------------------------------

 Structure from the checkpoint file:  "O2_HF_6311pp2d3p_Opt_Freq_Full.chk"
 -------------------------------------
 O2 HF 6-311++g(2d,3p) Opt Freq - Full
 -------------------------------------
 Charge =  0 Multiplicity = 1

                         Standard orientation:
 ---------------------------------------------------------------------
 Center     Atomic      Atomic             Coordinates (Angstroms)
 Number     Number       Type             X           Y           Z
 ---------------------------------------------------------------------
      1          8           0        0.000000    0.000000    0.578674
      2          8           0        0.000000    0.000000   -0.578674
 ---------------------------------------------------------------------

 SCF Done:  E(RHF) =  -149.584166943     A.U. after    1 cycles

 Unable to determine electronic state:  an orbital has unidentified symmetry.
 Alpha  occ. eigenvalues --  -20.73671 -20.73553  -1.70958  -1.08968  -0.79200
 Alpha  occ. eigenvalues --   -0.75921  -0.68113  -0.45185
 Alpha virt. eigenvalues --    0.03782   0.17458   0.18115   0.21567   0.22107
 Alpha virt. eigenvalues --    0.28494   0.28936   0.30153   0.42829   0.58049
 Alpha virt. eigenvalues --    1.12949   1.14090   1.16525   1.16547   1.24351

 Mulliken charges:
               1
     1  O    0.000000
     2  O    0.000000
 Sum of Mulliken charges =   0.00000

 Dipole moment (field-independent basis, Debye):
    X=             -0.0000    Y=              0.0000    Z=             -0.0000  Tot=              0.0000
 Quadrupole moment (field-independent basis, Debye-Ang):
   XX=             -9.1756   YY=            -10.8836   ZZ=            -10.5463
   XY=              0.0000   XZ=              0.0000   YZ=              0.0000

  Exact polarizability:   5.569   0.000   5.677  -0.000   0.000  13.251
 Approx polarizability:   5.527  -0.000   4.758  -0.000  -0.000  12.316

                      1
                     SGG
 Frequencies --   1969.2446
 Red. masses --     15.9949
 Frc consts  --     36.5453
 IR Inten    --      0.0000
 Raman Activ --     20.6593

 - Thermochemistry -
 -------------------
 Temperature   298.150 Kelvin.  Pressure   1.00000 Atm.
 Atom     1 has atomic number  8 and mass  15.99491

 Molecular mass:    31.98983 amu.
 Principal axes and moments of inertia in atomic units:
                           1         2         3
     Eigenvalues --     0.00000  38.25412  38.25412
           X           -0.00000   1.00000  -0.00000
           Y            0.00000   0.00000   1.00000
           Z            1.00000   0.00000  -0.00000
 This molecule is a prolate symmetric top.
 Rotational symmetry number  2.
 Rotational temperature (Kelvin)      2.26417
 Rotational constant (GHZ):          47.177699
 Zero-point vibrational energy      11778.7 (Joules/Mol)
                                    2.81518 (Kcal/Mol)
 Vibrational temperatures:   2833.30
          (Kelvin)

 Zero-point correction=                           0.004486 (Hartree/Particle)
 Thermal correction to Energy=                    0.006847
 Thermal correction to Enthalpy=                  0.007792
 Thermal correction to Gibbs Free Energy=        -0.014364
 Sum of electronic and zero-point Energies=           -149.579681
 Sum of electronic and thermal Energies=              -149.577320
 Sum of electronic and thermal Enthalpies=            -149.576375
 Sum of electronic and thermal Free Energies=         -149.598531

                     E (Thermal)             CV                S
                      KCal/Mol        Cal/Mol-Kelvin    Cal/Mol-Kelvin
 Total                    4.297              4.981             46.630
 Electronic               0.000              0.000              0.000
 Translational            0.889              2.981             36.321
 Rotational               0.592              1.987             10.308
 Vibrational              2.816              0.013              0.002

 Optimization completed.
    -- Stationary point found.
 Normal termination of Gaussian 16 at Fri Sep  6 09:58:57 2024.
