 Gaussian 16, Revision A.03,
 Gaussian 16:  EM64M-G16RevA.03 25-Dec-2016

 ----------------------------------------------------------------------
 #p opt freq=raman pm6 guess=save pop=(hirshfeld,full) geom=connectivit
 y polar
 ----------------------------------------------------------------------

 ---------------
 O2 PM6 Opt Freq
 ---------------
 Symbolic Z-matrix:
 Charge =  0 Multiplicity = 1

 SCF Done:  E(RPM6) =  0.699160527724E-01 A.U. after    6 cycles
 SCF Done:  E(RPM6) =  0.672977573887E-01 A.U. after    5 cycles
 SCF Done:  E(RPM6) =  0.664882541767E-01 A.U. after    5 cycles
 Optimization completed.
    -- Stationary point found.
 Normal termination of Gaussian 16 at Fri Sep  6 09:57:48 2024.

 -------------------------------------------------------------
 #P Geom=AllCheck Guess=TCheck SCRF=Check GenChk RPM6/ZDO Freq
 -------------------------------------------------------------

 Structure from the checkpoint file:  "O2_PM6_Opt_Freq_Full.chk"
 ---------------
 O2 PM6 Opt Freq
 ---------------
 Charge =  0 Multiplicity = 1

                         Standard orientation:
 ---------------------------------------------------------------------
 Center     Atomic      Atomic             Coordinates (Angstroms)
 Number     Number       Type             X           Y           Z
 ---------------------------------------------------------------------
      1          8           0        0.000000    0.000000    0.554511
      2          8           0        0.000000    0.000000   -0.554511
 ---------------------------------------------------------------------

 SCF Done:  E(RPM6) =  0.664882541767E-01 A.U. after    2 cycles

 Unable to determine electronic state:  partially filled degenerate orbitals.
 Alpha  occ. eigenvalues --   -1.30641  -1.06943  -0.66948  -0.62010  -0.61465
 Alpha  occ. eigenvalues --   -0.30386
 Alpha virt. eigenvalues --   -0.06282   0.09119

 Mulliken charges:
               1
     1  O   -0.000000
     2  O    0.000000
 Sum of Mulliken charges =   0.00000

 Dipole moment (field-independent basis, Debye):
    X=             -0.0000    Y=             -0.0000    Z=             -0.0000  Tot=              0.0000
 N-N= 3.322457099459D+01 E-N=-2.202453901257D+01  KE=-3.512377260774D+01
 Symmetry AG   KE=-1.247211113433D+01
 Symmetry B1G  KE= 0.000000000000D+00
 Symmetry B2G  KE=-4.879016924689D+00
 Symmetry B3G  KE= 0.000000000000D+00
 Symmetry AU   KE= 0.000000000000D+00
 Symmetry B1U  KE=-6.815540549353D+00
 Symmetry B2U  KE=-5.478551999682D+00
 Symmetry B3U  KE=-5.478551999682D+00
 StAtR1:  DoIntr=F IAtCor=3 NETot=      12 Failed=F Sum=  4.00D+00 SumC=  0.00D+00

  Exact polarizability:   0.108   0.000   0.245  -0.000   0.000  12.647
 Approx polarizability:   0.046  -0.000   0.205  -0.000  -0.000  11.198

                      1
                     SGG
 Frequencies --   1592.5318
 Red. masses --     15.9949
 Frc consts  --     23.9006
 IR Inten    --      0.0000
 Raman Activ --     33.2537

 - Thermochemistry -
 -------------------
 Temperature   298.150 Kelvin.  Pressure   1.00000 Atm.
 Atom     1 has atomic number  8 and mass  15.99491

 Molecular mass:    31.98983 amu.
 Principal axes and moments of inertia in atomic units:
                           1         2         3
     Eigenvalues --    -0.00000  35.12614  35.12614
           X           -0.00000   1.00000  -0.00000
           Y            0.00000   0.00000   1.00000
           Z            1.00000   0.00000  -0.00000
 This molecule is a prolate symmetric top.
 Rotational symmetry number  2.
 Rotational temperature (Kelvin)      2.46580
 Rotational constant (GHZ):          51.378871
 Zero-point vibrational energy       9525.5 (Joules/Mol)
                                    2.27664 (Kcal/Mol)
 Vibrational temperatures:   2291.30
          (Kelvin)

 Zero-point correction=                           0.003628 (Hartree/Particle)
 Thermal correction to Energy=                    0.005992
 Thermal correction to Enthalpy=                  0.006936
 Thermal correction to Gibbs Free Energy=        -0.015142
 Sum of electronic and zero-point Energies=              0.070116
 Sum of electronic and thermal Energies=                 0.072480
 Sum of electronic and thermal Enthalpies=               0.073424
 Sum of electronic and thermal Free Energies=            0.051346

                     E (Thermal)             CV                S
                      KCal/Mol        Cal/Mol-Kelvin    Cal/Mol-Kelvin
 Total                    3.760              5.022             46.467
 Electronic               0.000              0.000              0.000
 Translational            0.889              2.981             36.321
 Rotational               0.592              1.987             10.139
 Vibrational              2.279              0.054              0.008

 Optimization completed.
    -- Stationary point found.
 Normal termination of Gaussian 16 at Fri Sep  6 09:57:49 2024.
