 Gaussian 16, Revision A.03,
 Gaussian 16:  EM64M-G16RevA.03 25-Dec-2016

 ----------------------------------------------------------------------
 #p opt=tight freq pm6 guess=save pop=(hirshfeld,full,nbo) geom=connect
 ivity polar
 ----------------------------------------------------------------------

 ---------------------------------
 R1234YF PM6 Opt Freq - Full - NBO
 ---------------------------------
 Symbolic Z-matrix:
 Charge =  0 Multiplicity = 2

 SCF Done:  E(UPM6) = -0.269741942695     A.U. after   15 cycles
 SCF Done:  E(UPM6) = -0.295553134327     A.U. after   13 cycles
 SCF Done:  E(UPM6) = -0.296692499672     A.U. after   12 cycles
 SCF Done:  E(UPM6) = -0.296873883878     A.U. after   12 cycles
 SCF Done:  E(UPM6) = -0.296945181394     A.U. after   12 cycles
 SCF Done:  E(UPM6) = -0.297019132862     A.U. after   12 cycles
 SCF Done:  E(UPM6) = -0.297217754354     A.U. after   13 cycles
 SCF Done:  E(UPM6) = -0.297528823903     A.U. after   13 cycles
 SCF Done:  E(UPM6) = -0.297859593872     A.U. after   13 cycles
 SCF Done:  E(UPM6) = -0.298632251839     A.U. after   13 cycles
 SCF Done:  E(UPM6) = -0.299088919470     A.U. after   13 cycles
 SCF Done:  E(UPM6) = -0.299127599758     A.U. after   12 cycles
 SCF Done:  E(UPM6) = -0.299133493229     A.U. after   11 cycles
 SCF Done:  E(UPM6) = -0.299134073413     A.U. after   10 cycles
 SCF Done:  E(UPM6) = -0.299134150382     A.U. after    9 cycles
 SCF Done:  E(UPM6) = -0.299134154852     A.U. after    8 cycles
 SCF Done:  E(UPM6) = -0.299134155550     A.U. after    8 cycles
 Optimization completed.
    -- Stationary point found.
 Normal termination of Gaussian 16 at Fri Sep  6 11:36:38 2024.

 -------------------------------------------------------------
 #P Geom=AllCheck Guess=TCheck SCRF=Check GenChk UPM6/ZDO Freq
 -------------------------------------------------------------

 Structure from the checkpoint file:  "r1234yf_PM6_Opt_Freq_Full_NBO.chk"
 ---------------------------------
 R1234YF PM6 Opt Freq - Full - NBO
 ---------------------------------
 Charge =  0 Multiplicity = 2

                         Standard orientation:
 ---------------------------------------------------------------------
 Center     Atomic      Atomic             Coordinates (Angstroms)
 Number     Number       Type             X           Y           Z
 ---------------------------------------------------------------------
      1          6           0        0.576449    0.021913   -0.019161
      2          9           0        1.309039   -1.038701   -0.388170
      3          9           0        1.227817    1.067239   -0.555702
      4          6           0       -0.915551   -0.048836   -0.447528
      5          1           0       -0.986922   -0.139770   -1.569900
      6          9           0        0.794074    0.137056    1.296316
      7          9           0       -1.430832   -1.212398    0.061757
      8          6           0       -1.686962    1.106055    0.035616
      9          1           0       -2.574716    0.979284    0.623914
     10          1           0       -1.382857    2.106931   -0.195387
 ---------------------------------------------------------------------

 SCF Done:  E(UPM6) = -0.299134155550     A.U. after    2 cycles

 The electronic state is 2-A.
 Alpha  occ. eigenvalues --   -1.57019  -1.56336  -1.56208  -1.55100  -1.03909
 Alpha  occ. eigenvalues --   -0.90474  -0.80862  -0.72099  -0.71510  -0.70172
 Alpha  occ. eigenvalues --   -0.65604  -0.63235  -0.62390  -0.62300  -0.61382
 Alpha  occ. eigenvalues --   -0.61181  -0.57500  -0.57154  -0.53856  -0.52671
 Alpha  occ. eigenvalues --   -0.50863  -0.39182
 Alpha virt. eigenvalues --    0.03856   0.05620   0.07361   0.09027   0.09658
 Alpha virt. eigenvalues --    0.11488   0.14705   0.19134   0.19895
  Beta  occ. eigenvalues --   -1.57009  -1.56325  -1.56195  -1.55089  -1.03407
  Beta  occ. eigenvalues --   -0.89822  -0.80270  -0.71999  -0.71406  -0.69960
  Beta  occ. eigenvalues --   -0.65384  -0.63147  -0.62387  -0.62301  -0.61388
  Beta  occ. eigenvalues --   -0.60832  -0.57488  -0.57110  -0.52949  -0.51782
  Beta  occ. eigenvalues --   -0.50221
  Beta virt. eigenvalues --   -0.01792   0.04531   0.05609   0.07678   0.09150
  Beta virt. eigenvalues --    0.09722   0.12551   0.15012   0.19962   0.20757

 Mulliken charges and spin densities:
               1          2
     1  C    0.444458   0.036225
     2  F   -0.168306   0.001921
     3  F   -0.179428   0.000684
     4  C    0.014132  -0.064238
     5  H    0.179215   0.028196
     6  F   -0.160980   0.000673
     7  F   -0.142120   0.001215
     8  C   -0.333701   1.061779
     9  H    0.176719  -0.033119
    10  H    0.170010  -0.033337
 Sum of Mulliken charges =   0.00000   1.00000

 Dipole moment (field-independent basis, Debye):
    X=             -1.7422    Y=              1.1755    Z=             -1.1676  Tot=              2.4042
 N-N= 2.523567325198D+02 E-N=-3.297237729831D+02  KE=-1.400131984298D+02
 StAtR1:  DoIntr=F IAtCor=3 NETot=      43 Failed=F Sum=  1.40D+01 SumC=  0.00D+00
 There are a total of      229176 grid points.
 ElSum from          density=       50.9060874543
 ElSum from atomic densities=       56.9999927708

 Hirshfeld populations at iteration   1 (CX, CA, CB, DipXYZ):
               1          2          3          4          5          6
     1  C    0.000000   1.741898   1.727121   1.553313  -0.098155   0.557557
     2  F    0.000000   3.958322   3.955443   0.468435  -0.467755  -0.083021

  Exact polarizability:  28.415   0.735  32.196  -2.432  -1.391  24.896
 Approx polarizability:  15.841   0.609  20.948  -2.130  -1.040  16.172

 Summary of Natural Population Analysis:

                                       Natural Population
                Natural  -----------------------------------------------
    Atom  No    Charge         Core      Valence    Rydberg      Total
 -----------------------------------------------------------------------
      C    1    0.24034      1.00000     1.75966    0.00000     2.75966
      F    2   -0.08319      1.00000     3.58319    0.00000     4.58319
      F    3   -0.08937      1.00000     3.58937    0.00000     4.58937
      C    4   -0.02505      1.00000     2.02505    0.00000     3.02505
      H    5    0.10371      0.00000     0.39629    0.00000     0.39629
      F    6   -0.08015      1.00000     3.58015    0.00000     4.58015
      F    7   -0.07045      1.00000     3.57045    0.00000     4.57045
      C    8    0.36404      1.00000     1.63596    0.00000     2.63596
      H    9    0.07180      0.00000     0.42820    0.00000     0.42820
      H   10    0.06834      0.00000     0.43166    0.00000     0.43166
 =======================================================================
   * Total *    0.50000      7.00000    21.00000    0.00000    28.00000

                      1                      2                      3
                      A                      A                      A
 Frequencies --     49.4995               145.8265               206.9323
 Red. masses --      6.1212                 1.0890                 7.3291
 Frc consts  --      0.0088                 0.0136                 0.1849
 IR Inten    --      1.0311                 0.4460                 1.9335

                      4                      5                      6
                      A                      A                      A
 Frequencies --    239.2803               328.0486               361.2358
 Red. masses --      7.0405                 5.8549                 9.4482
 Frc consts  --      0.2375                 0.3712                 0.7264
 IR Inten    --      0.7634                 1.3839                 0.8417

                      7                      8                      9
                      A                      A                      A
 Frequencies --    453.1908               505.0249               520.0745
 Red. masses --      6.8512                 7.2839                 9.5741
 Frc consts  --      0.8290                 1.0946                 1.5257
 IR Inten    --      4.9726                18.4022                 8.6849

                     10                     11                     12
                      A                      A                      A
 Frequencies --    605.1751               820.4227               901.5893
 Red. masses --      6.0750                 1.9147                 2.8139
 Frc consts  --      1.3109                 0.7593                 1.3477
 IR Inten    --     17.8508                80.9044                39.1630

                     13                     14                     15
                      A                      A                      A
 Frequencies --    932.6089              1102.4264              1156.2776
 Red. masses --      1.5954                 1.2777                 1.3165
 Frc consts  --      0.8176                 0.9149                 1.0370
 IR Inten    --     11.8571                 2.8858                 6.6179

                     16                     17                     18
                      A                      A                      A
 Frequencies --   1215.1022              1285.4362              1295.1578
 Red. masses --      3.8375                 6.4260                 9.9724
 Frc consts  --      3.3383                 6.2559                 9.8559
 IR Inten    --     45.0740                59.7417               119.0008

                     19                     20                     21
                      A                      A                      A
 Frequencies --   1309.1130              1326.8647              1337.2396
 Red. masses --      1.2182                 5.9530                 6.6794
 Frc consts  --      1.2301                 6.1751                 7.0373
 IR Inten    --     40.8173               130.9018                23.8398

                     22                     23                     24
                      A                      A                      A
 Frequencies --   2635.3290              2728.8763              2773.4032
 Red. masses --      1.0620                 1.1051                 1.0428
 Frc consts  --      4.3457                 4.8487                 4.7257
 IR Inten    --     88.7692               109.6548                61.0796

 - Thermochemistry -
 -------------------
 Temperature   298.150 Kelvin.  Pressure   1.00000 Atm.
 Atom     1 has atomic number  6 and mass  12.00000

 Molecular mass:   115.01709 amu.
 Principal axes and moments of inertia in atomic units:
                           1         2         3
     Eigenvalues --   485.06891 771.92488 928.18494
           X            0.99584  -0.09109   0.00391
           Y            0.09105   0.99580   0.00947
           Z           -0.00476  -0.00907   0.99995
 This molecule is an asymmetric top.
 Rotational symmetry number  1.
 Warning -- assumption of classical behavior for rotation
           may cause significant error
 Rotational temperatures (Kelvin)      0.17856     0.11221     0.09332
 Rotational constants (GHZ):           3.72059     2.33798     1.94438
 Zero-point vibrational energy     144952.3 (Joules/Mol)
                                   34.64444 (Kcal/Mol)
 Warning -- explicit consideration of  10 degrees of freedom as
           vibrations may cause significant error
 Vibrational temperatures:     71.22   209.81   297.73   344.27   471.99
          (Kelvin)            519.74   652.04   726.62   748.27   870.71
                             1180.41  1297.19  1341.82  1586.15  1663.63
                             1748.26  1849.46  1863.44  1883.52  1909.06
                             1923.99  3791.65  3926.24  3990.31

 Zero-point correction=                           0.055209 (Hartree/Particle)
 Thermal correction to Energy=                    0.062452
 Thermal correction to Enthalpy=                  0.063396
 Thermal correction to Gibbs Free Energy=         0.022582
 Sum of electronic and zero-point Energies=             -0.243925
 Sum of electronic and thermal Energies=                -0.236682
 Sum of electronic and thermal Enthalpies=              -0.235738
 Sum of electronic and thermal Free Energies=           -0.276552

                     E (Thermal)             CV                S
                      KCal/Mol        Cal/Mol-Kelvin    Cal/Mol-Kelvin
 Total                   39.189             24.446             85.901
 Electronic               0.000              0.000              1.377
 Translational            0.889              2.981             40.135
 Rotational               0.889              2.981             27.343
 Vibrational             37.412             18.485             17.045
 Vibration     1          0.595              1.978              4.837
 Vibration     2          0.617              1.907              2.726
 Vibration     3          0.641              1.830              2.071
 Vibration     4          0.657              1.780              1.808
 Vibration     5          0.711              1.619              1.270
 Vibration     6          0.735              1.552              1.117
 Vibration     7          0.812              1.354              0.786
 Vibration     8          0.860              1.239              0.646
 Vibration     9          0.875              1.206              0.610
 Vibration    10          0.964              1.021              0.441

 Optimization completed.
    -- Stationary point found.
 Normal termination of Gaussian 16 at Fri Sep  6 11:36:42 2024.
