 Gaussian 16, Revision A.03,
 Gaussian 16:  EM64M-G16RevA.03 25-Dec-2016

 ----------------------------------------------------------------------
 #p opt=tight freq pm6 guess=save pop=(hirshfeld,full,nbo) geom=connect
 ivity polar
 ----------------------------------------------------------------------

 -------------------------------
 R134a PM6 Opt Freq - Full - NBO
 -------------------------------
 Symbolic Z-matrix:
 Charge =  0 Multiplicity = 1

 SCF Done:  E(RPM6) = -0.331829036850     A.U. after   15 cycles
 SCF Done:  E(RPM6) = -0.340004928311     A.U. after   13 cycles
 SCF Done:  E(RPM6) = -0.340792123476     A.U. after   12 cycles
 SCF Done:  E(RPM6) = -0.340862391646     A.U. after   11 cycles
 SCF Done:  E(RPM6) = -0.340864735423     A.U. after   10 cycles
 SCF Done:  E(RPM6) = -0.340864960685     A.U. after    9 cycles
 SCF Done:  E(RPM6) = -0.340864976569     A.U. after    8 cycles
 SCF Done:  E(RPM6) = -0.340864977352     A.U. after    7 cycles
 Optimization completed.
    -- Stationary point found.
 Normal termination of Gaussian 16 at Fri Sep  6 11:33:56 2024.

 -------------------------------------------------------------
 #P Geom=AllCheck Guess=TCheck SCRF=Check GenChk RPM6/ZDO Freq
 -------------------------------------------------------------

 Structure from the checkpoint file:  "r134a_PM6_Opt_Freq_Full_NBO.chk"
 -------------------------------
 R134a PM6 Opt Freq - Full - NBO
 -------------------------------
 Charge =  0 Multiplicity = 1

                         Standard orientation:
 ---------------------------------------------------------------------
 Center     Atomic      Atomic             Coordinates (Angstroms)
 Number     Number       Type             X           Y           Z
 ---------------------------------------------------------------------
      1          6           0       -0.325392    0.191575   -0.000000
      2          9           0       -0.879388   -0.415353    1.058870
      3          9           0       -0.879388    1.416932   -0.000000
      4          6           0        1.207656    0.237986   -0.000000
      5          1           0        1.601768    0.746436   -0.907298
      6          1           0        1.601768    0.746436    0.907298
      7          9           0       -0.879388   -0.415353   -1.058870
      8          9           0        1.694039   -1.038474    0.000000
 ---------------------------------------------------------------------

 SCF Done:  E(RPM6) = -0.340864977352     A.U. after    2 cycles

 The electronic state is 1-A'.
 Alpha  occ. eigenvalues --   -1.57082  -1.56477  -1.56235  -1.55710  -1.00984
 Alpha  occ. eigenvalues --   -0.85599  -0.72236  -0.71921  -0.70760  -0.65853
 Alpha  occ. eigenvalues --   -0.63630  -0.62506  -0.62406  -0.61466  -0.60103
 Alpha  occ. eigenvalues --   -0.57601  -0.57025  -0.51873  -0.50908
 Alpha virt. eigenvalues --    0.04088   0.05524   0.07603   0.09105   0.09784
 Alpha virt. eigenvalues --    0.14935   0.15951

 Mulliken charges:
               1
     1  C    0.466431
     2  F   -0.166824
     3  F   -0.181626
     4  C   -0.194981
     5  H    0.179970
     6  H    0.179970
     7  F   -0.166824
     8  F   -0.116117
 Sum of Mulliken charges =  -0.00000

 Dipole moment (field-independent basis, Debye):
    X=              1.8765    Y=              1.3330    Z=             -0.0000  Tot=              2.3018
 N-N= 2.123930418759D+02 E-N=-2.609464175896D+02  KE=-1.321139272493D+02
 Symmetry A'   KE=-8.438538958094D+01
 Symmetry A"   KE=-4.772853766837D+01
 StAtR1:  DoIntr=F IAtCor=3 NETot=      38 Failed=F Sum=  1.20D+01 SumC=  0.00D+00
 There are a total of      181992 grid points.
 ElSum from          density=       43.0918672570
 ElSum from atomic densities=       50.0000024916

 Hirshfeld populations at iteration   1 (CX, CA, CB, DipXYZ):
               1          2          3          4          5          6

  Exact polarizability:  21.466  -2.694  26.148  -0.000  -0.000  20.707
 Approx polarizability:  11.840  -1.368  16.790  -0.000  -0.000  13.307

 Summary of Natural Population Analysis:

                                       Natural Population
                Natural  -----------------------------------------------
    Atom  No    Charge         Core      Valence    Rydberg      Total
 -----------------------------------------------------------------------
      C    1    0.46643      2.00000     3.53357    0.00000     5.53357
      F    2   -0.16682      2.00000     7.16682    0.00000     9.16682
      F    3   -0.18163      2.00000     7.18163    0.00000     9.18163
      C    4   -0.19498      2.00000     4.19498    0.00000     6.19498
      H    5    0.17997      0.00000     0.82003    0.00000     0.82003
      H    6    0.17997      0.00000     0.82003    0.00000     0.82003
      F    7   -0.16682      2.00000     7.16682    0.00000     9.16682
      F    8   -0.11612      2.00000     7.11612    0.00000     9.11612
 =======================================================================
   * Total *   -0.00000     12.00000    38.00000    0.00000    50.00000

                      1                      2                      3
                     A"                     A'                     A"
 Frequencies --     59.9147               217.8562               313.0671
 Red. masses --      4.1832                16.1677                 4.2372
 Frc consts  --      0.0088                 0.4521                 0.2447
 IR Inten    --      5.2898                 1.7320                 0.4642

                      4                      5                      6
                     A'                     A"                     A'
 Frequencies --    369.3464               483.9879               496.1799
 Red. masses --     14.3873                 9.3599                12.3597
 Frc consts  --      1.1564                 1.2918                 1.7928
 IR Inten    --      1.1435                 7.0632                15.7539

                      7                      8                      9
                     A'                     A'                     A"
 Frequencies --    584.4431               915.0012               931.0790
 Red. masses --      9.7189                 8.0913                 1.6944
 Frc consts  --      1.9559                 3.9913                 0.8654
 IR Inten    --     30.5285                 0.3451                 3.8819

                     10                     11                     12
                     A"                     A'                     A'
 Frequencies --   1112.3825              1194.8605              1251.4438
 Red. masses --      1.1018                 1.9030                 1.2574
 Frc consts  --      0.8033                 1.6008                 1.1603
 IR Inten    --      5.2757                 5.6022                54.9962

                     13                     14                     15
                     A'                     A'                     A"
 Frequencies --   1264.4801              1322.5537              1326.5611
 Red. masses --      5.4815                 6.7721                 7.1527
 Frc consts  --      5.1639                 6.9791                 7.4161
 IR Inten    --     82.3578                48.7995               193.0635

                     16                     17                     18
                     A'                     A"                     A'
 Frequencies --   1338.2722              2635.6003              2698.9281
 Red. masses --      2.5862                 1.0885                 1.0454
 Frc consts  --      2.7290                 4.4549                 4.4865
 IR Inten    --     84.5754               114.9147                71.2460

 - Thermochemistry -
 -------------------
 Temperature   298.150 Kelvin.  Pressure   1.00000 Atm.
 Atom     1 has atomic number  6 and mass  12.00000

 Molecular mass:   102.00926 amu.
 Principal axes and moments of inertia in atomic units:
                           1         2         3
     Eigenvalues --   328.87632 664.91356 677.66853
           X            0.89002   0.45592   0.00000
           Y           -0.45592   0.89002   0.00000
           Z           -0.00000  -0.00000   1.00000
 This molecule is an asymmetric top.
 Rotational symmetry number  1.
 Rotational temperatures (Kelvin)      0.26336     0.13026     0.12781
 Rotational constants (GHZ):           5.48760     2.71425     2.66316
 Zero-point vibrational energy     110750.0 (Joules/Mol)
                                   26.46989 (Kcal/Mol)
 Warning -- explicit consideration of   7 degrees of freedom as
           vibrations may cause significant error
 Vibrational temperatures:     86.20   313.45   450.43   531.41   696.35
          (Kelvin)            713.89   840.88  1316.48  1339.62  1600.47
                             1719.14  1800.55  1819.30  1902.86  1908.63
                             1925.48  3792.04  3883.16

 Zero-point correction=                           0.042182 (Hartree/Particle)
 Thermal correction to Energy=                    0.047935
 Thermal correction to Enthalpy=                  0.048879
 Thermal correction to Gibbs Free Energy=         0.012067
 Sum of electronic and zero-point Energies=             -0.298683
 Sum of electronic and thermal Energies=                -0.292930
 Sum of electronic and thermal Enthalpies=              -0.291986
 Sum of electronic and thermal Free Energies=           -0.328798

                     E (Thermal)             CV                S
                      KCal/Mol        Cal/Mol-Kelvin    Cal/Mol-Kelvin
 Total                   30.080             18.703             77.478
 Electronic               0.000              0.000              0.000
 Translational            0.889              2.981             39.777
 Rotational               0.889              2.981             26.497
 Vibrational             28.302             12.742             11.204
 Vibration     1          0.597              1.973              4.460
 Vibration     2          0.646              1.814              1.977
 Vibration     3          0.701              1.649              1.346
 Vibration     4          0.742              1.535              1.083
 Vibration     5          0.840              1.286              0.699
 Vibration     6          0.852              1.258              0.668
 Vibration     7          0.941              1.065              0.477

 Optimization completed.
    -- Stationary point found.
 Normal termination of Gaussian 16 at Fri Sep  6 11:34:00 2024.
