 Gaussian 16, Revision A.03,
 Gaussian 16:  EM64M-G16RevA.03 25-Dec-2016

 ----------------------------------------------------------------------
 #p opt=tight freq b3lyp/6-311++g(2d,3p) guess=save pop=(hirshfeld,full
 ,nbo) geom=connectivity polar
 ----------------------------------------------------------------------

 -----------------------------------------------------
 R134a DFT B3LPY 6-311++g(2d,3p) Opt Freq - Full - NBO
 -----------------------------------------------------
 Symbolic Z-matrix:
 Charge =  0 Multiplicity = 1

 SCF Done:  E(RB3LYP) =  -476.949815316     A.U. after   11 cycles
 SCF Done:  E(RB3LYP) =  -476.951863524     A.U. after   10 cycles
 SCF Done:  E(RB3LYP) =  -476.952117957     A.U. after    8 cycles
 SCF Done:  E(RB3LYP) =  -476.952140867     A.U. after    7 cycles
 SCF Done:  E(RB3LYP) =  -476.952144256     A.U. after    7 cycles
 SCF Done:  E(RB3LYP) =  -476.952144492     A.U. after    6 cycles
 SCF Done:  E(RB3LYP) =  -476.952144516     A.U. after    5 cycles
 SCF Done:  E(RB3LYP) =  -476.952144518     A.U. after    4 cycles
 Optimization completed.
    -- Stationary point found.
 Normal termination of Gaussian 16 at Fri Sep  6 11:32:03 2024.

 ----------------------------------------------------------------------
 #P Geom=AllCheck Guess=TCheck SCRF=Check GenChk RB3LYP/6-311++G(2d,3p)
  Freq
 ----------------------------------------------------------------------

 Structure from the checkpoint file:  "r134a_DFT_B3LPY_6311pp2d3p_Opt_Freq_Full_NBO.chk"
 -----------------------------------------------------
 R134a DFT B3LPY 6-311++g(2d,3p) Opt Freq - Full - NBO
 -----------------------------------------------------
 Charge =  0 Multiplicity = 1

                         Standard orientation:
 ---------------------------------------------------------------------
 Center     Atomic      Atomic             Coordinates (Angstroms)
 Number     Number       Type             X           Y           Z
 ---------------------------------------------------------------------
      1          6           0       -0.361070    0.190079    0.000000
      2          9           0       -0.841922   -0.437010    1.084408
      3          9           0       -0.841922    1.451668    0.000000
      4          6           0        1.155723    0.244282   -0.000000
      5          1           0        1.490233    0.764808   -0.895858
      6          1           0        1.490233    0.764808    0.895858
      7          9           0       -0.841922   -0.437010   -1.084408
      8          9           0        1.664834   -1.037180   -0.000000
 ---------------------------------------------------------------------

 SCF Done:  E(RB3LYP) =  -476.952144518     A.U. after    1 cycles

 The electronic state is 1-A'.
 Alpha  occ. eigenvalues --  -24.73403 -24.73106 -24.73105 -24.70272 -10.44610
 Alpha  occ. eigenvalues --  -10.29378  -1.33905  -1.25208  -1.25016  -1.23607
 Alpha  occ. eigenvalues --   -0.80742  -0.69811  -0.62253  -0.62204  -0.59662
 Alpha  occ. eigenvalues --   -0.53522  -0.53200  -0.49202  -0.49148  -0.46471
 Alpha  occ. eigenvalues --   -0.45322  -0.45211  -0.43462  -0.39135  -0.38423
 Alpha virt. eigenvalues --   -0.01154   0.01000   0.01972   0.03541   0.06241
 Alpha virt. eigenvalues --    0.07019   0.07986   0.09323   0.10427   0.11127
 Alpha virt. eigenvalues --    0.12526   0.12780   0.15742   0.17891   0.18282

 Mulliken charges:
               1
     1  C    0.816212
     2  F   -0.313192
     3  F   -0.311621
     4  C    0.360147
     5  H    0.062378
     6  H    0.062378
     7  F   -0.313192
     8  F   -0.363112
 Sum of Mulliken charges =  -0.00000

 Dipole moment (field-independent basis, Debye):
    X=              1.3869    Y=              1.6062    Z=             -0.0000  Tot=              2.1221
 Quadrupole moment (field-independent basis, Debye-Ang):
   XX=            -32.6632   YY=            -34.0656   ZZ=            -32.1041
   XY=              3.3021   XZ=              0.0000   YZ=             -0.0000

  Exact polarizability:  29.716  -0.704  30.264   0.000  -0.000  28.362
 Approx polarizability:  35.326  -0.952  41.064   0.000   0.000  38.134

 Summary of Natural Population Analysis:

                                       Natural Population
                Natural  -----------------------------------------------
    Atom  No    Charge         Core      Valence    Rydberg      Total
 -----------------------------------------------------------------------
      C    1    1.04135      1.99944     2.90608    0.05313     4.95865
      F    2   -0.35128      1.99991     7.34078    0.01058     9.35128
      F    3   -0.35953      1.99992     7.34943    0.01018     9.35953
      C    4    0.02365      1.99900     3.94793    0.02942     5.97635
      H    5    0.18225      0.00000     0.81322    0.00453     0.81775
      H    6    0.18225      0.00000     0.81322    0.00453     0.81775
      F    7   -0.35128      1.99991     7.34078    0.01058     9.35128
      F    8   -0.36741      1.99994     7.35981    0.00766     9.36741
 =======================================================================
   * Total *    0.00000     11.99812    37.87127    0.13061    50.00000

                      1                      2                      3
                     A"                     A'                     A"
 Frequencies --    106.2281               215.6711               345.3729
 Red. masses --      4.8592                15.9452                 3.3333
 Frc consts  --      0.0323                 0.4370                 0.2343
 IR Inten    --      6.0963                 2.9670                 1.6001

                      4                      5                      6
                     A'                     A"                     A'
 Frequencies --    403.0953               521.9732               537.3078
 Red. masses --     13.4630                 8.2337                11.0150
 Frc consts  --      1.2889                 1.3217                 1.8736
 IR Inten    --      0.6452                 1.3233                 7.6105

                      7                      8                      9
                     A'                     A'                     A"
 Frequencies --    653.0661               833.2016               966.4393
 Red. masses --      9.4794                 7.5094                 2.0953
 Frc consts  --      2.3820                 3.0715                 1.1531
 IR Inten    --     31.7917                18.4421                79.1806

                     10                     11                     12
                     A'                     A'                     A"
 Frequencies --   1089.0563              1144.1409              1181.5841
 Red. masses --      7.5505                10.1531                 2.3615
 Frc consts  --      5.2762                 7.8308                 1.9425
 IR Inten    --     94.6458               291.0846               122.4911

                     13                     14                     15
                     A'                     A"                     A'
 Frequencies --   1284.3417              1300.3517              1432.5894
 Red. masses --      4.0440                 1.3955                 1.6046
 Frc consts  --      3.9303                 1.3903                 1.9402
 IR Inten    --    142.2240                96.7587                10.2157

                     16                     17                     18
                     A'                     A'                     A"
 Frequencies --   1489.6419              3076.1218              3135.3525
 Red. masses --      1.0864                 1.0557                 1.1119
 Frc consts  --      1.4204                 5.8859                 6.4401
 IR Inten    --      6.5360                13.4826                 6.4204

 - Thermochemistry -
 -------------------
 Temperature   298.150 Kelvin.  Pressure   1.00000 Atm.
 Atom     1 has atomic number  6 and mass  12.00000

 Molecular mass:   102.00926 amu.
 Principal axes and moments of inertia in atomic units:
                           1         2         3
     Eigenvalues --   340.27671 651.06335 660.66168
           X            0.87082   0.49161  -0.00000
           Y           -0.49161   0.87082  -0.00000
           Z           -0.00000   0.00000   1.00000
 This molecule is an asymmetric top.
 Rotational symmetry number  1.
 Rotational temperatures (Kelvin)      0.25454     0.13303     0.13110
 Rotational constants (GHZ):           5.30375     2.77199     2.73172
 Zero-point vibrational energy     117925.1 (Joules/Mol)
                                   28.18477 (Kcal/Mol)
 Warning -- explicit consideration of   6 degrees of freedom as
           vibrations may cause significant error
 Vibrational temperatures:    152.84   310.30   496.91   579.96   751.00
          (Kelvin)            773.07   939.62  1198.79  1390.49  1566.91
                             1646.16  1700.04  1847.88  1870.92  2061.18
                             2143.26  4425.85  4511.07

 Zero-point correction=                           0.044915 (Hartree/Particle)
 Thermal correction to Energy=                    0.050430
 Thermal correction to Enthalpy=                  0.051374
 Thermal correction to Gibbs Free Energy=         0.015354
 Sum of electronic and zero-point Energies=           -476.907229
 Sum of electronic and thermal Energies=              -476.901714
 Sum of electronic and thermal Enthalpies=            -476.900770
 Sum of electronic and thermal Free Energies=         -476.936790

                     E (Thermal)             CV                S
                      KCal/Mol        Cal/Mol-Kelvin    Cal/Mol-Kelvin
 Total                   31.645             18.302             75.810
 Electronic               0.000              0.000              0.000
 Translational            0.889              2.981             39.777
 Rotational               0.889              2.981             26.484
 Vibrational             29.868             12.340              9.549
 Vibration     1          0.605              1.944              3.337
 Vibration     2          0.645              1.817              1.995
 Vibration     3          0.724              1.585              1.187
 Vibration     4          0.768              1.463              0.951
 Vibration     5          0.877              1.201              0.605
 Vibration     6          0.892              1.168              0.571

 Optimization completed.
    -- Stationary point found.
 Normal termination of Gaussian 16 at Fri Sep  6 11:32:25 2024.
