 Gaussian 16, Revision A.03,
 Gaussian 16:  EM64M-G16RevA.03 25-Dec-2016

 ----------------------------------------------------------------------
 #p opt=tight freq hf/6-311++g(2d,3p) guess=save pop=(hirshfeld,full,nb
 o) geom=connectivity polar
 ----------------------------------------------------------------------

 ----------------------------------------------
 R134a HF 6-311++g(2d,3p) Opt Freq - Full - NBO
 ----------------------------------------------
 Symbolic Z-matrix:
 Charge =  0 Multiplicity = 1

 SCF Done:  E(RHF) =  -474.809825150     A.U. after   12 cycles
 SCF Done:  E(RHF) =  -474.815630976     A.U. after   10 cycles
 SCF Done:  E(RHF) =  -474.816235544     A.U. after    9 cycles
 SCF Done:  E(RHF) =  -474.816279365     A.U. after    8 cycles
 SCF Done:  E(RHF) =  -474.816282712     A.U. after    7 cycles
 SCF Done:  E(RHF) =  -474.816282844     A.U. after    6 cycles
 SCF Done:  E(RHF) =  -474.816282869     A.U. after    5 cycles
 SCF Done:  E(RHF) =  -474.816282870     A.U. after    4 cycles
 Optimization completed.
    -- Stationary point found.
 Normal termination of Gaussian 16 at Fri Sep  6 11:30:27 2024.

 ----------------------------------------------------------------------
 #P Geom=AllCheck Guess=TCheck SCRF=Check GenChk RHF/6-311++G(2d,3p) Fr
 eq
 ----------------------------------------------------------------------

 Structure from the checkpoint file:  "r134a_HF_6311pp2d3p_Opt_Freq_Full_NBO.chk"
 ----------------------------------------------
 R134a HF 6-311++g(2d,3p) Opt Freq - Full - NBO
 ----------------------------------------------
 Charge =  0 Multiplicity = 1

                         Standard orientation:
 ---------------------------------------------------------------------
 Center     Atomic      Atomic             Coordinates (Angstroms)
 Number     Number       Type             X           Y           Z
 ---------------------------------------------------------------------
      1          6           0       -0.360508    0.188954    0.000000
      2          9           0       -0.828492   -0.424185    1.060207
      3          9           0       -0.828492    1.419808    0.000000
      4          6           0        1.146961    0.236519   -0.000000
      5          1           0        1.480062    0.752214   -0.886805
      6          1           0        1.480062    0.752214    0.886805
      7          9           0       -0.828492   -0.424185   -1.060207
      8          9           0        1.632273   -1.022246   -0.000000
 ---------------------------------------------------------------------

 SCF Done:  E(RHF) =  -474.816282870     A.U. after    1 cycles

 The electronic state is 1-A'.
 Alpha  occ. eigenvalues --  -26.35460 -26.35063 -26.35060 -26.32081 -11.51345
 Alpha  occ. eigenvalues --  -11.34850  -1.76334  -1.65940  -1.65647  -1.64150
 Alpha  occ. eigenvalues --   -1.07965  -0.94861  -0.85359  -0.85330  -0.82990
 Alpha  occ. eigenvalues --   -0.75501  -0.74378  -0.71830  -0.71819  -0.68465
 Alpha  occ. eigenvalues --   -0.67671  -0.67607  -0.66021  -0.57097  -0.55478
 Alpha virt. eigenvalues --    0.04028   0.06342   0.09372   0.09747   0.12629
 Alpha virt. eigenvalues --    0.12735   0.13221   0.15638   0.17191   0.18931
 Alpha virt. eigenvalues --    0.25423   0.25440   0.28197   0.32716   0.32872

 Mulliken charges:
               1
     1  C    1.076779
     2  F   -0.411452
     3  F   -0.405618
     4  C    0.587880
     5  H    0.009455
     6  H    0.009455
     7  F   -0.411452
     8  F   -0.455046
 Sum of Mulliken charges =  -0.00000

 Dipole moment (field-independent basis, Debye):
    X=              1.4619    Y=              1.7025    Z=             -0.0000  Tot=              2.2440
 Quadrupole moment (field-independent basis, Debye-Ang):
   XX=            -32.2209   YY=            -33.7973   ZZ=            -31.6999
   XY=              3.4266   XZ=              0.0000   YZ=             -0.0000

  Exact polarizability:  25.482  -0.434  26.039  -0.000  -0.000  24.723
 Approx polarizability:  20.934  -0.243  23.294  -0.000   0.000  22.352

 Summary of Natural Population Analysis:

                                       Natural Population
                Natural  -----------------------------------------------
    Atom  No    Charge         Core      Valence    Rydberg      Total
 -----------------------------------------------------------------------
      C    1    1.15871      1.99950     2.78567    0.05611     4.84129
      F    2   -0.39066      1.99991     7.38134    0.00942     9.39066
      F    3   -0.39823      1.99991     7.38915    0.00917     9.39823
      C    4    0.11854      1.99912     3.85048    0.03186     5.88146
      H    5    0.15247      0.00000     0.84366    0.00387     0.84753
      H    6    0.15247      0.00000     0.84366    0.00387     0.84753
      F    7   -0.39066      1.99991     7.38134    0.00942     9.39066
      F    8   -0.40263      1.99993     7.39419    0.00851     9.40263
 =======================================================================
   * Total *    0.00000     11.99828    37.86948    0.13224    50.00000

                      1                      2                      3
                     A"                     A'                     A"
 Frequencies --    121.6545               237.6045               379.6613
 Red. masses --      4.8374                15.8849                 3.2590
 Frc consts  --      0.0422                 0.5284                 0.2768
 IR Inten    --      7.4224                 3.6648                 1.5157
 Raman Activ --      0.0386                 0.0557                 0.1743

                      4                      5                      6
                     A'                     A"                     A'
 Frequencies --    447.2669               581.9980               596.7590
 Red. masses --     13.2927                 8.5417                10.5780
 Frc consts  --      1.5667                 1.7047                 2.2195
 IR Inten    --      0.8374                 3.3636                12.5040
 Raman Activ --      1.0646                 0.4886                 1.1006

                      7                      8                      9
                     A'                     A'                     A"
 Frequencies --    725.8780               922.3503              1079.9081
 Red. masses --      9.1722                 7.4607                 1.9051
 Frc consts  --      2.8474                 3.7396                 1.3090
 IR Inten    --     42.5985                18.6483                60.4794
 Raman Activ --      1.3335                 6.2839                 1.7137

                     10                     11                     12
                     A'                     A"                     A'
 Frequencies --   1218.3345              1329.2986              1329.5281
 Red. masses --      6.5945                 1.7101                 7.1487
 Frc consts  --      5.7672                 1.7804                 7.4452
 IR Inten    --    135.0933                80.5106               297.4739
 Raman Activ --      3.7739                 2.0460                 1.8179

                     13                     14                     15
                     A'                     A"                     A'
 Frequencies --   1434.4972              1445.7465              1596.2749
 Red. masses --      3.3416                 1.9885                 1.8212
 Frc consts  --      4.0514                 2.4488                 2.7341
 IR Inten    --    180.6353               190.0454                15.7389
 Raman Activ --      1.4295                 2.6646                 1.0976

                     16                     17                     18
                     A'                     A'                     A"
 Frequencies --   1627.1352              3245.1185              3304.8781
 Red. masses --      1.1442                 1.0578                 1.1123
 Frc consts  --      1.7849                 6.5632                 7.1576
 IR Inten    --     13.5610                17.2698                12.4917
 Raman Activ --      2.8575               101.3152                37.8194

 - Thermochemistry -
 -------------------
 Temperature   298.150 Kelvin.  Pressure   1.00000 Atm.
 Atom     1 has atomic number  6 and mass  12.00000

 Molecular mass:   102.00926 amu.
 Principal axes and moments of inertia in atomic units:
                           1         2         3
     Eigenvalues --   325.90948 628.06862 637.61704
           X            0.87235   0.48887   0.00000
           Y           -0.48887   0.87235   0.00000
           Z           -0.00000  -0.00000   1.00000
 This molecule is an asymmetric top.
 Rotational symmetry number  1.
 Rotational temperatures (Kelvin)      0.26576     0.13791     0.13584
 Rotational constants (GHZ):           5.53755     2.87348     2.83045
 Zero-point vibrational energy     129339.6 (Joules/Mol)
                                   30.91291 (Kcal/Mol)
 Warning -- explicit consideration of   6 degrees of freedom as
           vibrations may cause significant error
 Vibrational temperatures:    175.03   341.86   546.25   643.52   837.37
          (Kelvin)            858.60  1044.38  1327.06  1553.75  1752.91
                             1912.56  1912.89  2063.92  2080.11  2296.68
                             2341.08  4669.00  4754.98

 Zero-point correction=                           0.049263 (Hartree/Particle)
 Thermal correction to Energy=                    0.054455
 Thermal correction to Enthalpy=                  0.055399
 Thermal correction to Gibbs Free Energy=         0.020036
 Sum of electronic and zero-point Energies=           -474.767020
 Sum of electronic and thermal Energies=              -474.761828
 Sum of electronic and thermal Enthalpies=            -474.760884
 Sum of electronic and thermal Free Energies=         -474.796247

                     E (Thermal)             CV                S
                      KCal/Mol        Cal/Mol-Kelvin    Cal/Mol-Kelvin
 Total                   34.171             16.961             74.428
 Electronic               0.000              0.000              0.000
 Translational            0.889              2.981             39.777
 Rotational               0.889              2.981             26.370
 Vibrational             32.393             10.999              8.280
 Vibration     1          0.609              1.931              3.074
 Vibration     2          0.656              1.783              1.821
 Vibration     3          0.750              1.514              1.041
 Vibration     4          0.806              1.367              0.804
 Vibration     5          0.939              1.070              0.482
 Vibration     6          0.955              1.039              0.455

 Optimization completed.
    -- Stationary point found.
 Normal termination of Gaussian 16 at Fri Sep  6 11:30:40 2024.
