 Gaussian 16, Revision A.03,
 Gaussian 16:  EM64M-G16RevA.03 25-Dec-2016

 ----------------------------------------------------------------------
 #p opt=tight freq pm6 guess=save pop=(hirshfeld,full) geom=connectivit
 y polar
 ----------------------------------------------------------------------

 -------------------------------
 r152a PM6 Opt Freq - Full - NBO
 -------------------------------
 Symbolic Z-matrix:
 Charge =  0 Multiplicity = 1

 SCF Done:  E(RPM6) = -0.179778591635     A.U. after   14 cycles
 SCF Done:  E(RPM6) = -0.185704569940     A.U. after   12 cycles
 SCF Done:  E(RPM6) = -0.186434237873     A.U. after   12 cycles
 SCF Done:  E(RPM6) = -0.186496245385     A.U. after   11 cycles
 SCF Done:  E(RPM6) = -0.186501138727     A.U. after   10 cycles
 SCF Done:  E(RPM6) = -0.186501410533     A.U. after    9 cycles
 SCF Done:  E(RPM6) = -0.186501420707     A.U. after    7 cycles
 Optimization completed.
    -- Stationary point found.
 Normal termination of Gaussian 16 at Fri Sep  6 14:09:15 2024.

 -------------------------------------------------------------
 #P Geom=AllCheck Guess=TCheck SCRF=Check GenChk RPM6/ZDO Freq
 -------------------------------------------------------------

 Structure from the checkpoint file:  "r152a_PM6_Opt_Freq_Full.chk"
 -------------------------------
 r152a PM6 Opt Freq - Full - NBO
 -------------------------------
 Charge =  0 Multiplicity = 1

                         Standard orientation:
 ---------------------------------------------------------------------
 Center     Atomic      Atomic             Coordinates (Angstroms)
 Number     Number       Type             X           Y           Z
 ---------------------------------------------------------------------
      1          6           0        0.332155    0.193867    0.000000
      2          1           0        1.295371    0.752027    0.000000
      3          6           0       -0.916937    1.048887    0.000000
      4          1           0       -0.961298    1.698262    0.885837
      5          1           0       -0.961298    1.698262   -0.885837
      6          1           0       -1.842860    0.451790    0.000000
      7          9           0        0.332155   -0.669826   -1.052042
      8          9           0        0.332155   -0.669826    1.052042
 ---------------------------------------------------------------------

 SCF Done:  E(RPM6) = -0.186501420707     A.U. after    2 cycles

 The electronic state is 1-A'.
 Alpha  occ. eigenvalues --   -1.52655  -1.51760  -1.00443  -0.82802  -0.67492
 Alpha  occ. eigenvalues --   -0.65372  -0.64015  -0.59307  -0.55933  -0.55282
 Alpha  occ. eigenvalues --   -0.51304  -0.50251  -0.47607
 Alpha virt. eigenvalues --    0.09665   0.10486   0.11897   0.16312   0.18638
 Alpha virt. eigenvalues --    0.18975   0.22385

 Mulliken charges:
               1
     1  C    0.308101
     2  H    0.124990
     3  C   -0.569770
     4  H    0.183009
     5  H    0.183009
     6  H    0.191182
     7  F   -0.210260
     8  F   -0.210260
 Sum of Mulliken charges =  -0.00000

 Dipole moment (field-independent basis, Debye):
    X=             -0.4094    Y=              2.3993    Z=             -0.0000  Tot=              2.4340
 N-N= 1.112566062608D+02 E-N=-1.269937643708D+02  KE=-7.580798775066D+01
 Symmetry A'   KE=-4.253940713379D+01
 Symmetry A"   KE=-3.326858061687D+01
 StAtR1:  DoIntr=F IAtCor=3 NETot=      26 Failed=F Sum=  8.00D+00 SumC=  0.00D+00
 There are a total of      182092 grid points.
 ElSum from          density=       32.6246655774
 ElSum from atomic densities=       33.9999965194

 Hirshfeld populations at iteration   1 (CX, CA, CB, DipXYZ):
               1          2          3          4          5          6

  Exact polarizability:  14.128  -1.415  19.108   0.000   0.000  20.621
 Approx polarizability:   8.645  -0.464  11.725   0.000   0.000  13.263

                      1                      2                      3
                     A"                     A"                     A'
 Frequencies --    128.0224               361.9267               448.9935
 Red. masses --      1.0657                 3.6989                 5.0963
 Frc consts  --      0.0103                 0.2855                 0.6053
 IR Inten    --      0.0110                 0.0762                10.7879

                      4                      5                      6
                     A'                     A'                     A"
 Frequencies --    552.7983               959.8423               967.6272
 Red. masses --      5.2349                 1.7359                 1.4680
 Frc consts  --      0.9425                 0.9423                 0.8098
 IR Inten    --      2.9595                17.0355                 4.8772

                      7                      8                      9
                     A'                     A"                     A'
 Frequencies --   1130.4917              1144.4806              1176.3315
 Red. masses --      3.0741                 1.2572                 1.2906
 Frc consts  --      2.3147                 0.9702                 1.0522
 IR Inten    --     59.9108                20.1517                 6.3157

                     10                     11                     12
                     A'                     A"                     A"
 Frequencies --   1233.7955              1236.2520              1276.8076
 Red. masses --      1.0594                 1.0629                 3.5595
 Frc consts  --      0.9502                 0.9571                 3.4190
 IR Inten    --     56.4267                59.5230               188.7135

                     13                     14                     15
                     A'                     A'                     A'
 Frequencies --   1310.2481              1332.3866              2649.3473
 Red. masses --      4.7886                 1.1768                 1.0649
 Frc consts  --      4.8436                 1.2308                 4.4041
 IR Inten    --    132.8776                86.4888                 7.7894

                     16                     17                     18
                     A'                     A"                     A'
 Frequencies --   2687.2492              2692.0232              2789.6807
 Red. masses --      1.0872                 1.0876                 1.0316
 Frc consts  --      4.6256                 4.6439                 4.7299
 IR Inten    --    130.0141               101.1656                48.7806

 - Thermochemistry -
 -------------------
 Temperature   298.150 Kelvin.  Pressure   1.00000 Atm.
 Atom     1 has atomic number  6 and mass  12.00000

 Molecular mass:    66.02811 amu.
 Principal axes and moments of inertia in atomic units:
                           1         2         3
     Eigenvalues --   178.59129 211.39719 344.46197
           X           -0.58802   0.00000   0.80884
           Y            0.80884  -0.00000   0.58802
           Z            0.00000   1.00000  -0.00000
 This molecule is an asymmetric top.
 Rotational symmetry number  1.
 Rotational temperatures (Kelvin)      0.48498     0.40972     0.25145
 Rotational constants (GHZ):          10.10543     8.53721     5.23930
 Zero-point vibrational energy     144020.2 (Joules/Mol)
                                   34.42166 (Kcal/Mol)
 Warning -- explicit consideration of   4 degrees of freedom as
           vibrations may cause significant error
 Vibrational temperatures:    184.20   520.73   646.00   795.35  1381.00
          (Kelvin)           1392.20  1626.53  1646.65  1692.48  1775.16
                             1778.69  1837.04  1885.15  1917.01  3811.82
                             3866.35  3873.22  4013.73

 Zero-point correction=                           0.054854 (Hartree/Particle)
 Thermal correction to Energy=                    0.059378
 Thermal correction to Enthalpy=                  0.060323
 Thermal correction to Gibbs Free Energy=         0.027773
 Sum of electronic and zero-point Energies=             -0.131647
 Sum of electronic and thermal Energies=                -0.127123
 Sum of electronic and thermal Enthalpies=              -0.126179
 Sum of electronic and thermal Free Energies=           -0.158729

                     E (Thermal)             CV                S
                      KCal/Mol        Cal/Mol-Kelvin    Cal/Mol-Kelvin
 Total                   37.261             14.296             68.507
 Electronic               0.000              0.000              0.000
 Translational            0.889              2.981             38.481
 Rotational               0.889              2.981             24.079
 Vibrational             35.483              8.335              5.948
 Vibration     1          0.611              1.925              2.976
 Vibration     2          0.736              1.551              1.114
 Vibration     3          0.808              1.363              0.799
 Vibration     4          0.908              1.134              0.538

 Optimization completed.
    -- Stationary point found.
 Normal termination of Gaussian 16 at Fri Sep  6 14:09:16 2024.
