 Gaussian 16, Revision A.03,
 Gaussian 16:  EM64M-G16RevA.03 25-Dec-2016

 ----------------------------------------------------------------------
 #p opt=tight freq=raman b3lyp/6-311++g(2d,3p) guess=save pop=(hirshfel
 d,full,nbo) geom=connectivity polar
 ----------------------------------------------------------------------

 ----------------------------------------
 r152a HF 6-311++g(2d,3p) Opt Freq - Full
 ----------------------------------------
 Symbolic Z-matrix:
 Charge =  0 Multiplicity = 1

 SCF Done:  E(RB3LYP) =  -278.407222555     A.U. after   10 cycles
 SCF Done:  E(RB3LYP) =  -278.410461451     A.U. after    9 cycles
 SCF Done:  E(RB3LYP) =  -278.411020396     A.U. after    8 cycles
 SCF Done:  E(RB3LYP) =  -278.411031810     A.U. after    7 cycles
 SCF Done:  E(RB3LYP) =  -278.411032588     A.U. after    6 cycles
 SCF Done:  E(RB3LYP) =  -278.411032627     A.U. after    5 cycles
 SCF Done:  E(RB3LYP) =  -278.411032628     A.U. after    4 cycles
 Optimization completed.
    -- Stationary point found.
 Normal termination of Gaussian 16 at Fri Sep  6 14:15:59 2024.

 ----------------------------------------------------------------------
 #P Geom=AllCheck Guess=TCheck SCRF=Check GenChk RB3LYP/6-311++G(2d,3p)
  Freq
 ----------------------------------------------------------------------

 Structure from the checkpoint file:  "r152a_DFT_B3LPY_6311pp2d3p_Opt_Freq_Full_NBO_Raman.chk"
 ----------------------------------------
 r152a HF 6-311++g(2d,3p) Opt Freq - Full
 ----------------------------------------
 Charge =  0 Multiplicity = 1

                         Standard orientation:
 ---------------------------------------------------------------------
 Center     Atomic      Atomic             Coordinates (Angstroms)
 Number     Number       Type             X           Y           Z
 ---------------------------------------------------------------------
      1          6           0        0.321753    0.167962   -0.000000
      2          1           0        1.268159    0.708519   -0.000000
      3          6           0       -0.899471    1.041979    0.000000
      4          1           0       -0.900667    1.673388    0.886968
      5          1           0       -0.900667    1.673388   -0.886968
      6          1           0       -1.792063    0.418546    0.000000
      7          9           0        0.321753   -0.651861   -1.103392
      8          9           0        0.321753   -0.651861    1.103392
 ---------------------------------------------------------------------

 SCF Done:  E(RB3LYP) =  -278.411032628     A.U. after    1 cycles

 The electronic state is 1-A'.
 Alpha  occ. eigenvalues --  -24.68803 -24.68802 -10.33878 -10.18661  -1.25390
 Alpha  occ. eigenvalues --   -1.19758  -0.78627  -0.65987  -0.56082  -0.55314
 Alpha  occ. eigenvalues --   -0.51152  -0.44418  -0.43067  -0.41888  -0.40715
 Alpha  occ. eigenvalues --   -0.39829  -0.35229
 Alpha virt. eigenvalues --   -0.00971   0.01118   0.02740   0.03574   0.05605
 Alpha virt. eigenvalues --    0.05642   0.06997   0.08816   0.09469   0.11001
 Alpha virt. eigenvalues --    0.12417   0.13334   0.14405   0.15528   0.17204

 Mulliken charges:
               1
     1  C    0.503935
     2  H    0.059464
     3  C   -0.045964
     4  H    0.047419
     5  H    0.047419
     6  H    0.066239
     7  F   -0.339257
     8  F   -0.339257
 Sum of Mulliken charges =  -0.00000

 Dipole moment (field-independent basis, Debye):
    X=             -0.3833    Y=              2.3598    Z=             -0.0000  Tot=              2.3907
 Quadrupole moment (field-independent basis, Debye-Ang):
   XX=            -21.6867   YY=            -23.2040   ZZ=            -25.7821
   XY=              0.5108   XZ=             -0.0000   YZ=              0.0000

  Exact polarizability:  28.525  -1.344  29.099  -0.000   0.000  29.131
 Approx polarizability:  35.437   0.205  37.141  -0.000   0.000  39.343

 Summary of Natural Population Analysis:

                                       Natural Population
                Natural  -----------------------------------------------
    Atom  No    Charge         Core      Valence    Rydberg      Total
 -----------------------------------------------------------------------
      C    1    0.63017      1.99915     3.33283    0.03785     5.36983
      H    2    0.12452      0.00000     0.86898    0.00650     0.87548
      C    3   -0.63397      1.99929     4.62308    0.01159     6.63397
      H    4    0.21471      0.00000     0.78259    0.00270     0.78529
      H    5    0.21471      0.00000     0.78259    0.00270     0.78529
      H    6    0.21892      0.00000     0.77748    0.00360     0.78108
      F    7   -0.38454      1.99993     7.37745    0.00716     9.38454
      F    8   -0.38454      1.99993     7.37745    0.00716     9.38454
 =======================================================================
   * Total *   -0.00000      7.99830    25.92245    0.07925    34.00000

                      1                      2                      3
                     A"                     A"                     A'
 Frequencies --    226.0421               378.9444               458.4429
 Red. masses --      1.0636                 3.0750                 4.6042
 Frc consts  --      0.0320                 0.2602                 0.5701
 IR Inten    --      0.0668                 0.3192                12.3311
 Raman Activ --      0.0070                 0.4543                 0.9766

                      4                      5                      6
                     A'                     A'                     A"
 Frequencies --    559.4058               866.4484               929.1690
 Red. masses --      4.1167                 2.2948                 2.5272
 Frc consts  --      0.7590                 1.0150                 1.2855
 IR Inten    --      5.5919                 9.5540               101.9436
 Raman Activ --      0.9045                 6.1819                 2.9209

                      7                      8                      9
                     A'                     A"                     A'
 Frequencies --   1125.9063              1126.5775              1155.3324
 Red. masses --      3.4099                 2.2088                 2.2172
 Frc consts  --      2.5468                 1.6517                 1.7437
 IR Inten    --    115.1605               132.1278                25.1907
 Raman Activ --      3.2283                 1.7530                 2.0554

                     10                     11                     12
                     A"                     A'                     A'
 Frequencies --   1375.9636              1388.4600              1429.7572
 Red. masses --      1.1467                 1.2286                 1.4380
 Frc consts  --      1.2791                 1.3954                 1.7320
 IR Inten    --     14.8332                 5.6749                56.0547
 Raman Activ --      3.8262                 0.9372                 0.6549

                     13                     14                     15
                     A'                     A"                     A'
 Frequencies --   1485.8902              1486.6002              3053.7092
 Red. masses --      1.0468                 1.0491                 1.0342
 Frc consts  --      1.3618                 1.3660                 5.6821
 IR Inten    --      4.8902                 1.4480                 2.6890
 Raman Activ --      4.2911                 3.5092               153.6633

                     16                     17                     18
                     A'                     A"                     A'
 Frequencies --   3081.3306              3127.9426              3133.1907
 Red. masses --      1.0884                 1.1029                 1.1032
 Frc consts  --      6.0885                 6.3578                 6.3811
 IR Inten    --     28.7429                 8.6911                15.3662
 Raman Activ --    117.4679                49.7799                32.6063

 - Thermochemistry -
 -------------------
 Temperature   298.150 Kelvin.  Pressure   1.00000 Atm.
 Atom     1 has atomic number  6 and mass  12.00000

 Molecular mass:    66.02811 amu.
 Principal axes and moments of inertia in atomic units:
                           1         2         3
     Eigenvalues --   192.11787 202.07160 351.67502
           X           -0.58503   0.00000   0.81101
           Y            0.81101   0.00000   0.58503
           Z            0.00000   1.00000  -0.00000
 This molecule is an asymmetric top.
 Rotational symmetry number  1.
 Rotational temperatures (Kelvin)      0.45084     0.42863     0.24629
 Rotational constants (GHZ):           9.39393     8.93120     5.13184
 Zero-point vibrational energy     157841.9 (Joules/Mol)
                                   37.72513 (Kcal/Mol)
 Warning -- explicit consideration of   4 degrees of freedom as
           vibrations may cause significant error
 Vibrational temperatures:    325.22   545.22   659.60   804.86  1246.63
          (Kelvin)           1336.87  1619.93  1620.89  1662.27  1979.70
                             1997.68  2057.10  2137.86  2138.89  4393.61
                             4433.35  4500.41  4507.96

 Zero-point correction=                           0.060119 (Hartree/Particle)
 Thermal correction to Energy=                    0.064451
 Thermal correction to Enthalpy=                  0.065395
 Thermal correction to Gibbs Free Energy=         0.033380
 Sum of electronic and zero-point Energies=           -278.350914
 Sum of electronic and thermal Energies=              -278.346582
 Sum of electronic and thermal Enthalpies=            -278.345638
 Sum of electronic and thermal Free Energies=         -278.377653

                     E (Thermal)             CV                S
                      KCal/Mol        Cal/Mol-Kelvin    Cal/Mol-Kelvin
 Total                   40.444             13.979             67.382
 Electronic               0.000              0.000              0.000
 Translational            0.889              2.981             38.481
 Rotational               0.889              2.981             24.127
 Vibrational             38.666              8.017              4.774
 Vibration     1          0.650              1.801              1.910
 Vibration     2          0.749              1.515              1.043
 Vibration     3          0.816              1.342              0.771
 Vibration     4          0.915              1.119              0.525

 Optimization completed.
    -- Stationary point found.
 Normal termination of Gaussian 16 at Fri Sep  6 14:16:23 2024.
