 Gaussian 16, Revision A.03,
 Gaussian 16:  EM64M-G16RevA.03 25-Dec-2016

 ----------------------------------------------------------------------
 #p opt=tight freq=raman hf/6-311++g(2d,3p) guess=save pop=(hirshfeld,f
 ull,nbo) geom=connectivity polar
 ----------------------------------------------------------------------

 ----------------------------------------
 r152a HF 6-311++g(2d,3p) Opt Freq - Full
 ----------------------------------------
 Symbolic Z-matrix:
 Charge =  0 Multiplicity = 1

 SCF Done:  E(RHF) =  -277.034596059     A.U. after   11 cycles
 SCF Done:  E(RHF) =  -277.039285535     A.U. after   10 cycles
 SCF Done:  E(RHF) =  -277.039841469     A.U. after    9 cycles
 SCF Done:  E(RHF) =  -277.039862054     A.U. after    8 cycles
 SCF Done:  E(RHF) =  -277.039863108     A.U. after    7 cycles
 SCF Done:  E(RHF) =  -277.039863178     A.U. after    6 cycles
 SCF Done:  E(RHF) =  -277.039863183     A.U. after    5 cycles
 Optimization completed.
    -- Stationary point found.
 Normal termination of Gaussian 16 at Fri Sep  6 14:12:19 2024.

 ----------------------------------------------------------------------
 #P Geom=AllCheck Guess=TCheck SCRF=Check GenChk RHF/6-311++G(2d,3p) Fr
 eq
 ----------------------------------------------------------------------

 Structure from the checkpoint file:  "r1234yf_HF_6311pp2d3p_Opt_Freq_Full_NBO_Raman.chk"
 ----------------------------------------
 r152a HF 6-311++g(2d,3p) Opt Freq - Full
 ----------------------------------------
 Charge =  0 Multiplicity = 1

                         Standard orientation:
 ---------------------------------------------------------------------
 Center     Atomic      Atomic             Coordinates (Angstroms)
 Number     Number       Type             X           Y           Z
 ---------------------------------------------------------------------
      1          6           0        0.321396    0.157813   -0.000000
      2          1           0        1.250343    0.705472   -0.000000
      3          6           0       -0.897444    1.030721    0.000000
      4          1           0       -0.897847    1.656420    0.881660
      5          1           0       -0.897847    1.656420   -0.881660
      6          1           0       -1.783498    0.411210    0.000000
      7          9           0        0.321396   -0.642262   -1.077134
      8          9           0        0.321396   -0.642262    1.077134
 ---------------------------------------------------------------------

 SCF Done:  E(RHF) =  -277.039863183     A.U. after    1 cycles

 The electronic state is 1-A'.
 Alpha  occ. eigenvalues --  -26.30583 -26.30581 -11.39920 -11.23534  -1.66777
 Alpha  occ. eigenvalues --   -1.60005  -1.05383  -0.89980  -0.78511  -0.76415
 Alpha  occ. eigenvalues --   -0.73302  -0.66604  -0.62807  -0.61907  -0.57274
 Alpha  occ. eigenvalues --   -0.56561  -0.51365
 Alpha virt. eigenvalues --    0.03911   0.05552   0.06852   0.07880   0.12163
 Alpha virt. eigenvalues --    0.12717   0.13013   0.14363   0.15584   0.17290
 Alpha virt. eigenvalues --    0.18284   0.19273   0.26762   0.27405   0.29158

 Mulliken charges:
               1
     1  C    0.735707
     2  H    0.014376
     3  C    0.076857
     4  H    0.001296
     5  H    0.001296
     6  H    0.026801
     7  F   -0.428167
     8  F   -0.428167
 Sum of Mulliken charges =   0.00000

 Dipole moment (field-independent basis, Debye):
    X=             -0.3354    Y=              2.4107    Z=              0.0000  Tot=              2.4340
 Quadrupole moment (field-independent basis, Debye-Ang):
   XX=            -21.3310   YY=            -22.9868   ZZ=            -25.5560
   XY=              0.6151   XZ=              0.0000   YZ=             -0.0000

  Exact polarizability:  25.546  -0.890  25.823  -0.000   0.000  25.812
 Approx polarizability:  21.488   0.351  22.102  -0.000   0.000  22.901

 Summary of Natural Population Analysis:

                                       Natural Population
                Natural  -----------------------------------------------
    Atom  No    Charge         Core      Valence    Rydberg      Total
 -----------------------------------------------------------------------
      C    1    0.74262      1.99923     3.21648    0.04168     5.25738
      H    2    0.09395      0.00000     0.90085    0.00520     0.90605
      C    3   -0.55951      1.99941     4.54273    0.01738     6.55951
      H    4    0.18635      0.00000     0.81119    0.00247     0.81365
      H    5    0.18635      0.00000     0.81119    0.00247     0.81365
      H    6    0.19222      0.00000     0.80458    0.00321     0.80778
      F    7   -0.42098      1.99993     7.41305    0.00800     9.42098
      F    8   -0.42098      1.99993     7.41305    0.00800     9.42098
 =======================================================================
   * Total *   -0.00000      7.99848    25.91311    0.08840    34.00000

                      1                      2                      3
                     A"                     A"                     A'
 Frequencies --    252.1597               408.4549               504.4490
 Red. masses --      1.0653                 3.0816                 4.1298
 Frc consts  --      0.0399                 0.3029                 0.6192
 IR Inten    --      0.0791                 0.0995                16.6376
 Raman Activ --      0.0067                 0.2829                 0.7651

                      4                      5                      6
                     A'                     A'                     A"
 Frequencies --    616.7010               936.1612              1050.4206
 Red. masses --      4.4591                 2.2402                 1.9729
 Frc consts  --      0.9992                 1.1567                 1.2826
 IR Inten    --      6.8638                10.3213                72.6309
 Raman Activ --      0.6631                 6.4326                 2.5239

                      7                      8                      9
                     A'                     A"                     A'
 Frequencies --   1240.2297              1263.4880              1267.3960
 Red. masses --      2.3656                 2.7113                 2.8355
 Frc consts  --      2.1439                 2.5501                 2.6835
 IR Inten    --     69.4258               177.8564                90.6710
 Raman Activ --      3.9181                 2.2912                 2.0798

                     10                     11                     12
                     A'                     A"                     A'
 Frequencies --   1515.1346              1521.1114              1576.6555
 Red. masses --      1.2229                 1.1756                 1.4785
 Frc consts  --      1.6541                 1.6027                 2.1655
 IR Inten    --      3.4846                26.6079                65.1887
 Raman Activ --      0.5420                 3.4243                 0.9941

                     13                     14                     15
                     A'                     A"                     A'
 Frequencies --   1603.9916              1606.1299              3190.3387
 Red. masses --      1.0816                 1.0574                 1.0355
 Frc consts  --      1.6395                 1.6071                 6.2100
 IR Inten    --      9.6472                 0.2062                 5.4908
 Raman Activ --      4.3517                 2.8511               146.4838

                     16                     17                     18
                     A'                     A"                     A'
 Frequencies --   3255.5145              3263.4405              3278.3858
 Red. masses --      1.0963                 1.1038                 1.0968
 Frc consts  --      6.8457                 6.9265                 6.9455
 IR Inten    --      4.4300                18.9337                58.9109
 Raman Activ --    106.2160                47.1030                30.7375

 - Thermochemistry -
 -------------------
 Temperature   298.150 Kelvin.  Pressure   1.00000 Atm.
 Atom     1 has atomic number  6 and mass  12.00000

 Molecular mass:    66.02811 amu.
 Principal axes and moments of inertia in atomic units:
                           1         2         3
     Eigenvalues --   183.75297 198.33323 340.62823
           X           -0.59013   0.00000   0.80731
           Y            0.80731  -0.00000   0.59013
           Z            0.00000   1.00000   0.00000
 This molecule is an asymmetric top.
 Rotational symmetry number  1.
 Rotational temperatures (Kelvin)      0.47136     0.43671     0.25428
 Rotational constants (GHZ):           9.82156     9.09954     5.29827
 Zero-point vibrational energy     169571.6 (Joules/Mol)
                                   40.52859 (Kcal/Mol)
 Warning -- explicit consideration of   4 degrees of freedom as
           vibrations may cause significant error
 Vibrational temperatures:    362.80   587.68   725.79   887.30  1346.93
          (Kelvin)           1511.32  1784.41  1817.88  1823.50  2179.94
                             2188.54  2268.46  2307.79  2310.86  4590.19
                             4683.96  4695.36  4716.87

 Zero-point correction=                           0.064586 (Hartree/Particle)
 Thermal correction to Energy=                    0.068712
 Thermal correction to Enthalpy=                  0.069656
 Thermal correction to Gibbs Free Energy=         0.038026
 Sum of electronic and zero-point Energies=           -276.975277
 Sum of electronic and thermal Energies=              -276.971151
 Sum of electronic and thermal Enthalpies=            -276.970207
 Sum of electronic and thermal Free Energies=         -277.001837

                     E (Thermal)             CV                S
                      KCal/Mol        Cal/Mol-Kelvin    Cal/Mol-Kelvin
 Total                   43.117             13.000             66.570
 Electronic               0.000              0.000              0.000
 Translational            0.889              2.981             38.481
 Rotational               0.889              2.981             24.033
 Vibrational             41.340              7.038              4.057
 Vibration     1          0.664              1.759              1.715
 Vibration     2          0.773              1.452              0.932
 Vibration     3          0.860              1.240              0.647
 Vibration     4          0.976              0.997              0.422

 Optimization completed.
    -- Stationary point found.
 Normal termination of Gaussian 16 at Fri Sep  6 14:12:28 2024.
