 Gaussian 16, Revision A.03,
 Gaussian 16:  EM64M-G16RevA.03 25-Dec-2016

 ----------------------------------------------------------------------
 #p opt=tight freq hf/6-311++g(2d,3p) guess=save pop=(hirshfeld,full,nb
 o) geom=connectivity polar
 ----------------------------------------------------------------------

 --------------------------------------------
 R32 HF 6-311++g(2d,3p) Opt Freq - Full - NBO
 --------------------------------------------
 Symbolic Z-matrix:
 Charge =  0 Multiplicity = 1

 SCF Done:  E(RHF) =  -237.980320104     A.U. after   10 cycles
 SCF Done:  E(RHF) =  -237.981400551     A.U. after    9 cycles
 SCF Done:  E(RHF) =  -237.981445738     A.U. after    8 cycles
 SCF Done:  E(RHF) =  -237.981450007     A.U. after    7 cycles
 SCF Done:  E(RHF) =  -237.981450013     A.U. after    5 cycles
 Optimization completed.
    -- Stationary point found.
 Normal termination of Gaussian 16 at Fri Sep  6 11:00:27 2024.

 ----------------------------------------------------------------------
 #P Geom=AllCheck Guess=TCheck SCRF=Check GenChk RHF/6-311++G(2d,3p) Fr
 eq
 ----------------------------------------------------------------------

 Structure from the checkpoint file:  "r32_HF_6311pp2d3p_Opt_Freq_Full_NBO.chk"
 --------------------------------------------
 R32 HF 6-311++g(2d,3p) Opt Freq - Full - NBO
 --------------------------------------------
 Charge =  0 Multiplicity = 1

                         Standard orientation:
 ---------------------------------------------------------------------
 Center     Atomic      Atomic             Coordinates (Angstroms)
 Number     Number       Type             X           Y           Z
 ---------------------------------------------------------------------
      1          6           0        0.000000    0.000000    0.495927
      2          1           0       -0.897961   -0.000000    1.090859
      3          1           0        0.897961    0.000000    1.090859
      4          9           0        0.000000    1.080894   -0.286516
      5          9           0       -0.000000   -1.080894   -0.286516
 ---------------------------------------------------------------------

 SCF Done:  E(RHF) =  -237.981450013     A.U. after    1 cycles

 The electronic state is 1-A1.
 Alpha  occ. eigenvalues --  -26.31523 -26.31521 -11.40144  -1.67622  -1.60984
 Alpha  occ. eigenvalues --   -0.97707  -0.78955  -0.78246  -0.76693  -0.67100
 Alpha  occ. eigenvalues --   -0.63542  -0.62597  -0.53556
 Alpha virt. eigenvalues --    0.04132   0.06407   0.09714   0.10021   0.15105
 Alpha virt. eigenvalues --    0.16751   0.24486   0.26513   0.31300   0.32830
 Alpha virt. eigenvalues --    0.33414   0.34390   0.37369   0.37665   0.42942

 Mulliken charges:
               1
     1  C    0.925318
     2  H   -0.032463
     3  H   -0.032463
     4  F   -0.430196
     5  F   -0.430196
 Sum of Mulliken charges =  -0.00000

 Dipole moment (field-independent basis, Debye):
    X=              0.0000    Y=             -0.0000    Z=              2.1490  Tot=              2.1490
 Quadrupole moment (field-independent basis, Debye-Ang):
   XX=            -15.0353   YY=            -19.1919   ZZ=            -15.1652
   XY=             -0.0000   XZ=              0.0000   YZ=             -0.0000

  Exact polarizability:  13.812   0.000  15.489   0.000  -0.000  14.633
 Approx polarizability:  11.627   0.000  13.027   0.000  -0.000  12.380

 Summary of Natural Population Analysis:

                                       Natural Population
                Natural  -----------------------------------------------
    Atom  No    Charge         Core      Valence    Rydberg      Total
 -----------------------------------------------------------------------
      C    1    0.63256      1.99936     3.33367    0.03441     5.36744
      H    2    0.09526      0.00000     0.90081    0.00393     0.90474
      H    3    0.09526      0.00000     0.90081    0.00393     0.90474
      F    4   -0.41154      1.99993     7.40208    0.00954     9.41154
      F    5   -0.41154      1.99993     7.40208    0.00954     9.41154
 =======================================================================
   * Total *   -0.00000      5.99922    19.93945    0.06133    26.00000

                      1                      2                      3
                     A1                     B2                     A1
 Frequencies --    579.3401              1214.6805              1220.4937
 Red. masses --     12.5581                 7.3924                 7.3103
 Frc consts  --      2.4834                 6.4263                 6.4158
 IR Inten    --      6.8843               285.4075               136.7269
 Raman Activ --      1.0646                 3.4071                 4.7417

                      4                      5                      6
                     B1                     A2                     B2
 Frequencies --   1290.2642              1394.4627              1593.2712
 Red. masses --      1.5038                 1.0427                 1.1796
 Frc consts  --      1.4750                 1.1946                 1.7643
 IR Inten    --     25.8587                 0.0000                22.8718
 Raman Activ --      0.6013                 3.9113                 0.4707

                      7                      8                      9
                     A1                     A1                     B1
 Frequencies --   1669.4994              3249.2732              3320.1246
 Red. masses --      1.0988                 1.0522                 1.1195
 Frc consts  --      1.8044                 6.5450                 7.2711
 IR Inten    --      0.9653                48.9701                41.0517
 Raman Activ --      2.6743               112.8019                35.4868

 - Thermochemistry -
 -------------------
 Temperature   298.150 Kelvin.  Pressure   1.00000 Atm.
 Atom     1 has atomic number  6 and mass  12.00000

 Molecular mass:    52.01246 amu.
 Principal axes and moments of inertia in atomic units:
                           1         2         3
     Eigenvalues --    35.53345 164.33388 188.25931
           X            0.00000   0.00000   1.00000
           Y            1.00000  -0.00000  -0.00000
           Z            0.00000   1.00000  -0.00000
 This molecule is an asymmetric top.
 Rotational symmetry number  2.
 Rotational temperatures (Kelvin)      2.43753     0.52706     0.46008
 Rotational constants (GHZ):          50.78992    10.98216     9.58646
 Zero-point vibrational energy      92898.5 (Joules/Mol)
                                   22.20326 (Kcal/Mol)
 Warning -- explicit consideration of   1 degrees of freedom as
           vibrations may cause significant error
 Vibrational temperatures:    833.54  1747.65  1756.02  1856.40  2006.32
          (Kelvin)           2292.36  2402.04  4674.98  4776.92

 Zero-point correction=                           0.035383 (Hartree/Particle)
 Thermal correction to Energy=                    0.038444
 Thermal correction to Enthalpy=                  0.039388
 Thermal correction to Gibbs Free Energy=         0.011526
 Sum of electronic and zero-point Energies=           -237.946067
 Sum of electronic and thermal Energies=              -237.943006
 Sum of electronic and thermal Enthalpies=            -237.942062
 Sum of electronic and thermal Free Energies=         -237.969924

                     E (Thermal)             CV                S
                      KCal/Mol        Cal/Mol-Kelvin    Cal/Mol-Kelvin
 Total                   24.124              7.781             58.640
 Electronic               0.000              0.000              0.000
 Translational            0.889              2.981             37.769
 Rotational               0.889              2.981             20.247
 Vibrational             22.346              1.819              0.624
 Vibration     1          0.936              1.076              0.487

 Optimization completed.
    -- Stationary point found.
 Normal termination of Gaussian 16 at Fri Sep  6 11:00:31 2024.
