 Gaussian 16, Revision A.03,
 Gaussian 16:  EM64M-G16RevA.03 25-Dec-2016

 ----------------------------------------------------------------------
 #p opt=tight freq upm6 guess=save pop=(hirshfeld,full,nbo) geom=connec
 tivity polar
 ----------------------------------------------------------------------

 ------------------------------
 R32 uPM6 Opt Freq - Full - NBO
 ------------------------------
 Symbolic Z-matrix:
 Charge =  0 Multiplicity = 1

 SCF Done:  E(UPM6) = -0.162716172302     A.U. after   13 cycles
 SCF Done:  E(UPM6) = -0.166646464755     A.U. after   11 cycles
 SCF Done:  E(UPM6) = -0.166840320290     A.U. after   10 cycles
 SCF Done:  E(UPM6) = -0.166874953172     A.U. after   10 cycles
 SCF Done:  E(UPM6) = -0.166878885604     A.U. after    8 cycles
 SCF Done:  E(UPM6) = -0.166879153341     A.U. after    8 cycles
 SCF Done:  E(UPM6) = -0.166879169828     A.U. after    7 cycles
 Optimization completed.
    -- Stationary point found.
 Normal termination of Gaussian 16 at Fri Sep  6 10:59:00 2024.

 -------------------------------------------------------------
 #P Geom=AllCheck Guess=TCheck SCRF=Check GenChk UPM6/ZDO Freq
 -------------------------------------------------------------

 Structure from the checkpoint file:  "r32_uPM6_Opt_Freq_Full_NBO.chk"
 ------------------------------
 R32 uPM6 Opt Freq - Full - NBO
 ------------------------------
 Charge =  0 Multiplicity = 1

                         Standard orientation:
 ---------------------------------------------------------------------
 Center     Atomic      Atomic             Coordinates (Angstroms)
 Number     Number       Type             X           Y           Z
 ---------------------------------------------------------------------
      1          6           0        0.000000   -0.000000    0.543258
      2          1           0       -0.934302   -0.000000    1.134482
      3          1           0        0.934302    0.000000    1.134482
      4          9           0       -0.000000    1.057396   -0.307140
      5          9           0       -0.000000   -1.057396   -0.307140
 ---------------------------------------------------------------------

 SCF Done:  E(UPM6) = -0.166879169827     A.U. after    2 cycles

 The electronic state is 1-A1.
 Alpha  occ. eigenvalues --   -1.53908  -1.53071  -0.92033  -0.68182  -0.66679
 Alpha  occ. eigenvalues --   -0.64976  -0.60126  -0.56160  -0.54340  -0.49104
 Alpha virt. eigenvalues --    0.09044   0.10360   0.15871   0.16701
  Beta  occ. eigenvalues --   -1.53908  -1.53071  -0.92033  -0.68182  -0.66679
  Beta  occ. eigenvalues --   -0.64976  -0.60126  -0.56160  -0.54340  -0.49104
  Beta virt. eigenvalues --    0.09044   0.10360   0.15871   0.16701

 Mulliken charges and spin densities:
               1          2
     1  C    0.088801   0.000000
     2  H    0.136637   0.000000
     3  H    0.136637   0.000000
     4  F   -0.181038   0.000000
     5  F   -0.181038   0.000000
 Sum of Mulliken charges =  -0.00000   0.00000

 Dipole moment (field-independent basis, Debye):
    X=              0.0000    Y=              0.0000    Z=              2.0064  Tot=              2.0064
 N-N= 7.795553143240D+01 E-N=-7.302087317789D+01  KE=-6.685236893165D+01
 Symmetry A1   KE=-2.654879124862D+01
 Symmetry A2   KE=-7.256668176553D+00
 Symmetry B1   KE=-9.504491688441D+00
 Symmetry B2   KE=-2.354241781803D+01
 Symmetry A1   SP= 0.000000000000D+00
 Symmetry A2   SP= 0.000000000000D+00
 Symmetry B1   SP= 0.000000000000D+00
 Symmetry B2   SP= 0.000000000000D+00
 StAtR1:  DoIntr=F IAtCor=3 NETot=      20 Failed=F Sum=  6.00D+00 SumC=  0.00D+00

  Exact polarizability:   6.967   0.000  14.760   0.000  -0.000  11.419
 Approx polarizability:   4.176   0.000   8.961   0.000  -0.000   6.816

 Summary of Natural Population Analysis:

                                       Natural Population
                Natural  -----------------------------------------------
    Atom  No    Charge         Core      Valence    Rydberg      Total
 -----------------------------------------------------------------------
      C    1    0.04440      1.00000     1.95560    0.00000     2.95560
      H    2    0.06832      0.00000     0.43168    0.00000     0.43168
      H    3    0.06832      0.00000     0.43168    0.00000     0.43168
      F    4   -0.09052      1.00000     3.59052    0.00000     4.59052
      F    5   -0.09052      1.00000     3.59052    0.00000     4.59052
 =======================================================================
   * Total *    0.00000      3.00000    10.00000    0.00000    13.00000

                      1                      2                      3
                     A1                     B1                     A2
 Frequencies --    507.5903              1008.3664              1084.9231
 Red. masses --     11.8159                 1.5068                 1.0473
 Frc consts  --      1.7937                 0.9027                 0.7263
 IR Inten    --      6.3938                 1.0041                 0.0000

                      4                      5                      6
                     B2                     A1                     A1
 Frequencies --   1187.2195              1205.7950              1293.6948
 Red. masses --      2.1016                 3.1552                 1.4003
 Frc consts  --      1.7453                 2.7028                 1.3809
 IR Inten    --     48.1751                21.3956                 1.6734

                      7                      8                      9
                     B2                     B1                     A1
 Frequencies --   1300.4986              2638.2325              2675.0919
 Red. masses --      1.9911                 1.0945                 1.0403
 Frc consts  --      1.9841                 4.4886                 4.3862
 IR Inten    --     49.0624                51.1984                24.0187

 - Thermochemistry -
 -------------------
 Temperature   298.150 Kelvin.  Pressure   1.00000 Atm.
 Atom     1 has atomic number  6 and mass  12.00000

 Molecular mass:    52.01246 amu.
 Principal axes and moments of inertia in atomic units:
                           1         2         3
     Eigenvalues --    40.43145 157.99536 185.86023
           X            0.00000   0.00000   1.00000
           Y            1.00000   0.00000  -0.00000
           Z           -0.00000   1.00000   0.00000
 This molecule is an asymmetric top.
 Rotational symmetry number  2.
 Rotational temperatures (Kelvin)      2.14224     0.54821     0.46602
 Rotational constants (GHZ):          44.63706    11.42275     9.71021
 Zero-point vibrational energy      77167.6 (Joules/Mol)
                                   18.44349 (Kcal/Mol)
 Warning -- explicit consideration of   1 degrees of freedom as
           vibrations may cause significant error
 Vibrational temperatures:    730.31  1450.81  1560.96  1708.14  1734.87
          (Kelvin)           1861.34  1871.13  3795.83  3848.86

 Zero-point correction=                           0.029392 (Hartree/Particle)
 Thermal correction to Energy=                    0.032562
 Thermal correction to Enthalpy=                  0.033506
 Thermal correction to Gibbs Free Energy=         0.005460
 Sum of electronic and zero-point Energies=             -0.137488
 Sum of electronic and thermal Energies=                -0.134318
 Sum of electronic and thermal Enthalpies=              -0.133373
 Sum of electronic and thermal Free Energies=           -0.161420

                     E (Thermal)             CV                S
                      KCal/Mol        Cal/Mol-Kelvin    Cal/Mol-Kelvin
 Total                   20.433              8.571             59.028
 Electronic               0.000              0.000              0.000
 Translational            0.889              2.981             37.769
 Rotational               0.889              2.981             20.323
 Vibrational             18.655              2.610              0.936
 Vibration     1          0.863              1.233              0.639

 Optimization completed.
    -- Stationary point found.
 Normal termination of Gaussian 16 at Fri Sep  6 10:59:02 2024.
