 Gaussian 16, Revision A.03,
 Gaussian 16:  EM64M-G16RevA.03 25-Dec-2016

 ----------------------------------------------------------------------
 #p opt=tight freq=raman b3lyp/aug-cc-pvtz guess=save pop=(hirshfeld,fu
 ll,nbo) geom=connectivity polar
 ----------------------------------------------------------------------

 -----------------------------------------------
 R32 DFT B3LPY aug-cc-pVTZ Opt Freq - Full - NBO
 -----------------------------------------------
 Symbolic Z-matrix:
 Charge =  0 Multiplicity = 1

 SCF Done:  E(RB3LYP) =  -239.087166514     A.U. after    9 cycles
 SCF Done:  E(RB3LYP) =  -239.088341427     A.U. after    8 cycles
 SCF Done:  E(RB3LYP) =  -239.088395434     A.U. after    7 cycles
 SCF Done:  E(RB3LYP) =  -239.088400762     A.U. after    6 cycles
 SCF Done:  E(RB3LYP) =  -239.088400899     A.U. after    6 cycles
 SCF Done:  E(RB3LYP) =  -239.088400901     A.U. after    4 cycles
 Optimization completed.
    -- Stationary point found.
 Normal termination of Gaussian 16 at Fri Sep  6 16:25:55 2024.

 ----------------------------------------------------------------------
 #P Geom=AllCheck Guess=TCheck SCRF=Check GenChk RB3LYP/Aug-CC-pVTZ Fre
 q
 ----------------------------------------------------------------------

 Structure from the checkpoint file:  "r32_DFT_B3LPY_apVTZ_Opt_Freq_Full_NBO_Raman.chk"
 -----------------------------------------------
 R32 DFT B3LPY aug-cc-pVTZ Opt Freq - Full - NBO
 -----------------------------------------------
 Charge =  0 Multiplicity = 1

                         Standard orientation:
 ---------------------------------------------------------------------
 Center     Atomic      Atomic             Coordinates (Angstroms)
 Number     Number       Type             X           Y           Z
 ---------------------------------------------------------------------
      1          6           0        0.000000    0.000000    0.505830
      2          1           0       -0.911808    0.000000    1.102870
      3          1           0        0.911808    0.000000    1.102870
      4          9           0        0.000000    1.106031   -0.291151
      5          9           0       -0.000000   -1.106031   -0.291151
 ---------------------------------------------------------------------

 SCF Done:  E(RB3LYP) =  -239.088400901     A.U. after    1 cycles

 The electronic state is 1-A1.
 Alpha  occ. eigenvalues --  -24.70442 -24.70442 -10.34319  -1.26360  -1.20865
 Alpha  occ. eigenvalues --   -0.71997  -0.56092  -0.55680  -0.55493  -0.43796
 Alpha  occ. eigenvalues --   -0.42818  -0.41769  -0.36080
 Alpha virt. eigenvalues --   -0.00981   0.01524   0.02118   0.02563   0.07820
 Alpha virt. eigenvalues --    0.08675   0.11031   0.11350   0.13017   0.13303
 Alpha virt. eigenvalues --    0.13472   0.13553   0.15861   0.21215   0.22747

 Mulliken charges:
               1
     1  C    0.193646
     2  H    0.246667
     3  H    0.246667
     4  F   -0.343490
     5  F   -0.343490
 Sum of Mulliken charges =   0.00000

 Dipole moment (field-independent basis, Debye):
    X=              0.0000    Y=             -0.0000    Z=              1.9751  Tot=              1.9751
 Quadrupole moment (field-independent basis, Debye-Ang):
   XX=            -15.4112   YY=            -19.3415   ZZ=            -15.5038
   XY=             -0.0000   XZ=              0.0000   YZ=              0.0000

  Exact polarizability:  16.963   0.000  19.224   0.000  -0.000  17.978
 Approx polarizability:  20.967  -0.000  24.468   0.000   0.000  22.454

 Summary of Natural Population Analysis:

                                       Natural Population
                Natural  -----------------------------------------------
    Atom  No    Charge         Core      Valence    Rydberg      Total
 -----------------------------------------------------------------------
      C    1    0.46317      1.99938     3.50108    0.03636     5.53683
      H    2    0.12541      0.00000     0.87064    0.00395     0.87459
      H    3    0.12541      0.00000     0.87064    0.00395     0.87459
      F    4   -0.35700      1.99994     7.34497    0.01208     9.35700
      F    5   -0.35700      1.99994     7.34497    0.01208     9.35700
 =======================================================================
   * Total *   -0.00000      5.99927    19.93231    0.06842    26.00000

                      1                      2                      3
                     A1                     B2                     A1
 Frequencies --    522.3981              1064.9398              1104.2402
 Red. masses --     12.4788                 8.8818                 7.8067
 Frc consts  --      2.0064                 5.9348                 5.6085
 IR Inten    --      4.6135               260.8230                99.6250
 Raman Activ --      1.1776                 2.6301                 6.1880

                      4                      5                      6
                     B1                     A2                     B2
 Frequencies --   1177.4826              1266.3861              1449.0689
 Red. masses --      1.4975                 1.0422                 1.1475
 Frc consts  --      1.2233                 0.9847                 1.4197
 IR Inten    --     15.5297                 0.0000                10.6522
 Raman Activ --      0.5846                 4.2497                 0.5927

                      7                      8                      9
                     A1                     A1                     B1
 Frequencies --   1528.1444              3051.4022              3121.1612
 Red. masses --      1.0918                 1.0495                 1.1199
 Frc consts  --      1.5022                 5.7575                 6.4278
 IR Inten    --      0.1567                40.7564                29.9857
 Raman Activ --      3.2650               122.2995                43.5788

 - Thermochemistry -
 -------------------
 Temperature   298.150 Kelvin.  Pressure   1.00000 Atm.
 Atom     1 has atomic number  6 and mass  12.00000

 Molecular mass:    52.01246 amu.
 Principal axes and moments of inertia in atomic units:
                           1         2         3
     Eigenvalues --    36.67944 171.97347 196.68415
           X            0.00000   0.00000   1.00000
           Y            1.00000  -0.00000  -0.00000
           Z            0.00000   1.00000  -0.00000
 This molecule is an asymmetric top.
 Rotational symmetry number  2.
 Rotational temperatures (Kelvin)      2.36138     0.50365     0.44037
 Rotational constants (GHZ):          49.20307    10.49430     9.17583
 Zero-point vibrational energy      85444.6 (Joules/Mol)
                                   20.42175 (Kcal/Mol)
 Warning -- explicit consideration of   1 degrees of freedom as
           vibrations may cause significant error
 Vibrational temperatures:    751.61  1532.21  1588.76  1694.13  1822.05
          (Kelvin)           2084.89  2198.66  4390.29  4490.65

 Zero-point correction=                           0.032544 (Hartree/Particle)
 Thermal correction to Energy=                    0.035679
 Thermal correction to Enthalpy=                  0.036624
 Thermal correction to Gibbs Free Energy=         0.008602
 Sum of electronic and zero-point Energies=           -239.055857
 Sum of electronic and thermal Energies=              -239.052721
 Sum of electronic and thermal Enthalpies=            -239.051777
 Sum of electronic and thermal Free Energies=         -239.079799

                     E (Thermal)             CV                S
                      KCal/Mol        Cal/Mol-Kelvin    Cal/Mol-Kelvin
 Total                   22.389              8.293             58.976
 Electronic               0.000              0.000              0.000
 Translational            0.889              2.981             37.769
 Rotational               0.889              2.981             20.367
 Vibrational             20.612              2.331              0.839
 Vibration     1          0.877              1.200              0.604

 Optimization completed.
    -- Stationary point found.
 Normal termination of Gaussian 16 at Fri Sep  6 16:26:14 2024.
