 Gaussian 16, Revision A.03,
 Gaussian 16:  EM64M-G16RevA.03 25-Dec-2016

 ----------------------------------------------------------------------
 #p opt=tight freq b3lyp/6-311++g(2d,3p) guess=save pop=(hirshfeld,full
 ,nbo) geom=connectivity polar
 ----------------------------------------------------------------------

 ---------------------------------------------------
 R32 DFT B3LPY 6-311++g(2d,3p) Opt Freq - Full - NBO
 ---------------------------------------------------
 Symbolic Z-matrix:
 Charge =  0 Multiplicity = 1

 SCF Done:  E(RB3LYP) =  -239.071347043     A.U. after    9 cycles
 SCF Done:  E(RB3LYP) =  -239.072511402     A.U. after    8 cycles
 SCF Done:  E(RB3LYP) =  -239.072576858     A.U. after    7 cycles
 SCF Done:  E(RB3LYP) =  -239.072582870     A.U. after    7 cycles
 SCF Done:  E(RB3LYP) =  -239.072583010     A.U. after    6 cycles
 SCF Done:  E(RB3LYP) =  -239.072583012     A.U. after    4 cycles
 Optimization completed.
    -- Stationary point found.
 Normal termination of Gaussian 16 at Fri Sep  6 11:02:06 2024.

 ----------------------------------------------------------------------
 #P Geom=AllCheck Guess=TCheck SCRF=Check GenChk RB3LYP/6-311++G(2d,3p)
  Freq
 ----------------------------------------------------------------------

 Structure from the checkpoint file:  "r32_DFT_B3LPY_6311pp2d3p_Opt_Freq_Full_NBO.chk"
 ---------------------------------------------------
 R32 DFT B3LPY 6-311++g(2d,3p) Opt Freq - Full - NBO
 ---------------------------------------------------
 Charge =  0 Multiplicity = 1

                         Standard orientation:
 ---------------------------------------------------------------------
 Center     Atomic      Atomic             Coordinates (Angstroms)
 Number     Number       Type             X           Y           Z
 ---------------------------------------------------------------------
      1          6           0        0.000000   -0.000000    0.506398
      2          1           0       -0.911491   -0.000000    1.101567
      3          1           0        0.911491    0.000000    1.101567
      4          9           0        0.000000    1.107338   -0.291196
      5          9           0       -0.000000   -1.107338   -0.291196
 ---------------------------------------------------------------------

 SCF Done:  E(RB3LYP) =  -239.072583012     A.U. after    1 cycles

 The electronic state is 1-A1.
 Alpha  occ. eigenvalues --  -24.69852 -24.69852 -10.34092  -1.26435  -1.20922
 Alpha  occ. eigenvalues --   -0.72195  -0.56224  -0.55824  -0.55700  -0.43802
 Alpha  occ. eigenvalues --   -0.42888  -0.41787  -0.36200
 Alpha virt. eigenvalues --   -0.00663   0.02266   0.02708   0.03382   0.10252
 Alpha virt. eigenvalues --    0.11135   0.13295   0.15037   0.15660   0.16325
 Alpha virt. eigenvalues --    0.21229   0.23261   0.24819   0.27258   0.31852

 Mulliken charges:
               1
     1  C    0.633070
     2  H    0.024931
     3  H    0.024931
     4  F   -0.341467
     5  F   -0.341467
 Sum of Mulliken charges =  -0.00000

 Dipole moment (field-independent basis, Debye):
    X=              0.0000    Y=             -0.0000    Z=              2.0269  Tot=              2.0269
 Quadrupole moment (field-independent basis, Debye-Ang):
   XX=            -15.4058   YY=            -19.3511   ZZ=            -15.4883
   XY=             -0.0000   XZ=              0.0000   YZ=             -0.0000

  Exact polarizability:  15.464   0.000  18.234   0.000   0.000  16.742
 Approx polarizability:  18.859   0.000  23.280   0.000   0.000  20.797

 Summary of Natural Population Analysis:

                                       Natural Population
                Natural  -----------------------------------------------
    Atom  No    Charge         Core      Valence    Rydberg      Total
 -----------------------------------------------------------------------
      C    1    0.49542      1.99930     3.47161    0.03367     5.50458
      H    2    0.12594      0.00000     0.86997    0.00409     0.87406
      H    3    0.12594      0.00000     0.86997    0.00409     0.87406
      F    4   -0.37365      1.99993     7.36548    0.00823     9.37365
      F    5   -0.37365      1.99993     7.36548    0.00823     9.37365
 =======================================================================
   * Total *   -0.00000      5.99917    19.94252    0.05831    26.00000

                      1                      2                      3
                     A1                     B2                     A1
 Frequencies --    517.9919              1055.3832              1096.3796
 Red. masses --     12.5488                 8.9654                 7.8356
 Frc consts  --      1.9838                 5.8836                 5.5494
 IR Inten    --      4.6354               265.1869               101.8502

                      4                      5                      6
                     B1                     A2                     B2
 Frequencies --   1175.0916              1266.7144              1446.3956
 Red. masses --      1.4947                 1.0421                 1.1459
 Frc consts  --      1.2161                 0.9851                 1.4124
 IR Inten    --     15.2856                 0.0000                10.5901

                      7                      8                      9
                     A1                     A1                     B1
 Frequencies --   1523.8843              3063.9665              3137.4405
 Red. masses --      1.0905                 1.0497                 1.1206
 Frc consts  --      1.4920                 5.8063                 6.4990
 IR Inten    --      0.1130                40.0070                30.1084

 - Thermochemistry -
 -------------------
 Temperature   298.150 Kelvin.  Pressure   1.00000 Atm.
 Atom     1 has atomic number  6 and mass  12.00000

 Molecular mass:    52.01246 amu.
 Principal axes and moments of inertia in atomic units:
                           1         2         3
     Eigenvalues --    36.68372 172.36195 197.08521
           X            0.00000   0.00000   1.00000
           Y            1.00000   0.00000  -0.00000
           Z           -0.00000   1.00000   0.00000
 This molecule is an asymmetric top.
 Rotational symmetry number  2.
 Rotational temperatures (Kelvin)      2.36110     0.50251     0.43947
 Rotational constants (GHZ):          49.19734    10.47065     9.15716
 Zero-point vibrational energy      85432.8 (Joules/Mol)
                                   20.41893 (Kcal/Mol)
 Warning -- explicit consideration of   1 degrees of freedom as
           vibrations may cause significant error
 Vibrational temperatures:    745.27  1518.46  1577.45  1690.69  1822.52
          (Kelvin)           2081.04  2192.53  4408.36  4514.08

 Zero-point correction=                           0.032540 (Hartree/Particle)
 Thermal correction to Energy=                    0.035680
 Thermal correction to Enthalpy=                  0.036624
 Thermal correction to Gibbs Free Energy=         0.008594
 Sum of electronic and zero-point Energies=           -239.040043
 Sum of electronic and thermal Energies=              -239.036903
 Sum of electronic and thermal Enthalpies=            -239.035959
 Sum of electronic and thermal Free Energies=         -239.063989

                     E (Thermal)             CV                S
                      KCal/Mol        Cal/Mol-Kelvin    Cal/Mol-Kelvin
 Total                   22.390              8.322             58.996
 Electronic               0.000              0.000              0.000
 Translational            0.889              2.981             37.769
 Rotational               0.889              2.981             20.371
 Vibrational             20.612              2.360              0.855
 Vibration     1          0.873              1.210              0.615

 Optimization completed.
    -- Stationary point found.
 Normal termination of Gaussian 16 at Fri Sep  6 11:02:11 2024.
