 Gaussian 16, Revision A.03,
 Gaussian 16:  EM64M-G16RevA.03 25-Dec-2016

 ----------------------------------------------------------------------
 #p opt=tight freq=raman wb97xd/aug-cc-pvtz guess=save pop=(hirshfeld,f
 ull,nbo) geom=connectivity polar
 ----------------------------------------------------------------------

 ------------------------------------------------
 R32 DFT WB97XD aug-cc-pVTZ Opt Freq - Full - NBO
 ------------------------------------------------
 Symbolic Z-matrix:
 Charge =  0 Multiplicity = 1

 SCF Done:  E(RwB97XD) =  -239.015869961     A.U. after   10 cycles
 SCF Done:  E(RwB97XD) =  -239.016870359     A.U. after    9 cycles
 SCF Done:  E(RwB97XD) =  -239.016894434     A.U. after    7 cycles
 SCF Done:  E(RwB97XD) =  -239.016896858     A.U. after    7 cycles
 SCF Done:  E(RwB97XD) =  -239.016896954     A.U. after    6 cycles
 SCF Done:  E(RwB97XD) =  -239.016896955     A.U. after    4 cycles
 Optimization completed.
    -- Stationary point found.
 Normal termination of Gaussian 16 at Fri Sep  6 16:27:50 2024.

 ----------------------------------------------------------------------
 #P Geom=AllCheck Guess=TCheck SCRF=Check GenChk RwB97XD/Aug-CC-pVTZ Fr
 eq
 ----------------------------------------------------------------------

 Structure from the checkpoint file:  "r32_DFT_WB97XD_apVTZ_Opt_Freq_Full_NBO_Raman.chk"
 ------------------------------------------------
 R32 DFT WB97XD aug-cc-pVTZ Opt Freq - Full - NBO
 ------------------------------------------------
 Charge =  0 Multiplicity = 1

                         Standard orientation:
 ---------------------------------------------------------------------
 Center     Atomic      Atomic             Coordinates (Angstroms)
 Number     Number       Type             X           Y           Z
 ---------------------------------------------------------------------
      1          6           0        0.000000    0.000000    0.501383
      2          1           0       -0.910709    0.000000    1.101763
      3          1           0        0.910709    0.000000    1.101763
      4          9           0        0.000000    1.098725   -0.289546
      5          9           0       -0.000000   -1.098725   -0.289546
 ---------------------------------------------------------------------

 SCF Done:  E(RwB97XD) =  -239.016896955     A.U. after    1 cycles

 The electronic state is 1-A1.
 Alpha  occ. eigenvalues --  -24.82702 -24.82702 -10.45016  -1.36689  -1.30921
 Alpha  occ. eigenvalues --   -0.81220  -0.64891  -0.64519  -0.64171  -0.52367
 Alpha  occ. eigenvalues --   -0.51027  -0.50129  -0.43848
 Alpha virt. eigenvalues --    0.03127   0.04584   0.07491   0.07742   0.12701
 Alpha virt. eigenvalues --    0.12876   0.17765   0.18467   0.19733   0.19770
 Alpha virt. eigenvalues --    0.19866   0.20644   0.22596   0.28249   0.29727

 Mulliken charges:
               1
     1  C    0.204658
     2  H    0.242030
     3  H    0.242030
     4  F   -0.344359
     5  F   -0.344359
 Sum of Mulliken charges =  -0.00000

 Dipole moment (field-independent basis, Debye):
    X=              0.0000    Y=              0.0000    Z=              1.9272  Tot=              1.9272
 Quadrupole moment (field-independent basis, Debye-Ang):
   XX=            -15.2239   YY=            -19.0329   ZZ=            -15.3186
   XY=             -0.0000   XZ=              0.0000   YZ=              0.0000

  Exact polarizability:  16.851   0.000  18.772   0.000   0.000  17.712
 Approx polarizability:  16.476  -0.000  18.890   0.000   0.000  17.517

 Summary of Natural Population Analysis:

                                       Natural Population
                Natural  -----------------------------------------------
    Atom  No    Charge         Core      Valence    Rydberg      Total
 -----------------------------------------------------------------------
      C    1    0.45939      1.99940     3.50478    0.03643     5.54061
      H    2    0.12372      0.00000     0.87259    0.00369     0.87628
      H    3    0.12372      0.00000     0.87259    0.00369     0.87628
      F    4   -0.35341      1.99994     7.34098    0.01249     9.35341
      F    5   -0.35341      1.99994     7.34098    0.01249     9.35341
 =======================================================================
   * Total *   -0.00000      5.99928    19.93193    0.06878    26.00000

                      1                      2                      3
                     A1                     B2                     A1
 Frequencies --    534.9005              1104.8232              1133.3648
 Red. masses --     12.4669                 8.2964                 7.6160
 Frc consts  --      2.1016                 5.9666                 5.7639
 IR Inten    --      4.8012               262.9027               103.3080
 Raman Activ --      1.0988                 2.4868                 6.0249

                      4                      5                      6
                     B1                     A2                     B2
 Frequencies --   1190.2147              1280.9423              1463.3529
 Red. masses --      1.5056                 1.0425                 1.1588
 Frc consts  --      1.2567                 1.0079                 1.4620
 IR Inten    --     16.1325                 0.0000                12.5562
 Raman Activ --      0.5268                 4.2523                 0.5982

                      7                      8                      9
                     A1                     A1                     B1
 Frequencies --   1539.2932              3064.5389              3136.1233
 Red. masses --      1.0947                 1.0505                 1.1190
 Frc consts  --      1.5282                 5.8127                 6.4842
 IR Inten    --      0.1227                42.5711                31.3996
 Raman Activ --      3.2037               119.8561                41.9529

 - Thermochemistry -
 -------------------
 Temperature   298.150 Kelvin.  Pressure   1.00000 Atm.
 Atom     1 has atomic number  6 and mass  12.00000

 Molecular mass:    52.01246 amu.
 Principal axes and moments of inertia in atomic units:
                           1         2         3
     Eigenvalues --    36.33111 169.77324 194.16440
           X            0.00000   0.00000   1.00000
           Y            1.00000  -0.00000  -0.00000
           Z            0.00000   1.00000  -0.00000
 This molecule is an asymmetric top.
 Rotational symmetry number  2.
 Rotational temperatures (Kelvin)      2.38402     0.51017     0.44609
 Rotational constants (GHZ):          49.67482    10.63030     9.29491
 Zero-point vibrational energy      86415.6 (Joules/Mol)
                                   20.65382 (Kcal/Mol)
 Warning -- explicit consideration of   1 degrees of freedom as
           vibrations may cause significant error
 Vibrational temperatures:    769.60  1589.59  1630.66  1712.45  1842.99
          (Kelvin)           2105.44  2214.70  4409.19  4512.18

 Zero-point correction=                           0.032914 (Hartree/Particle)
 Thermal correction to Energy=                    0.036032
 Thermal correction to Enthalpy=                  0.036976
 Thermal correction to Gibbs Free Energy=         0.008996
 Sum of electronic and zero-point Energies=           -238.983983
 Sum of electronic and thermal Energies=              -238.980865
 Sum of electronic and thermal Enthalpies=            -238.979921
 Sum of electronic and thermal Free Energies=         -239.007901

                     E (Thermal)             CV                S
                      KCal/Mol        Cal/Mol-Kelvin    Cal/Mol-Kelvin
 Total                   22.610              8.183             58.889
 Electronic               0.000              0.000              0.000
 Translational            0.889              2.981             37.769
 Rotational               0.889              2.981             20.332
 Vibrational             20.833              2.221              0.788
 Vibration     1          0.890              1.173              0.576

 Optimization completed.
    -- Stationary point found.
 Normal termination of Gaussian 16 at Fri Sep  6 16:28:15 2024.
